          *******************************************************
          *                                                     *
          *          GAMESS VERSION = 30 SEP 2020 (R2)          *
          *                                                     *
          *              doi.org/10.1063/5.0005188              *
          *                                                     *
          *************** 64 BIT WINDOWS VERSION ****************

  GAMESS HAS BEEN MADE POSSIBLE WITH IMPORTANT CONTRIBUTIONS FROM
  THE FOLLOWING INDIVIDUALS (IN ALPHABETICAL ORDER):

     IVANA ADAMOVIC, CHRISTINE AIKENS, TOMOKO AKAMA,
     YURI ALEXEEV, YURIKO AOKI, POOJA ARORA, TOSHIO ASADA,
     ANDREY ASADCHEV, KIM K. BALDRIDGE, PRADIPTA BANDYOPADHYAY,
     MARIA BARYSZ, ROB BELL, JONATHAN BENTZ, COLLEEN BERTONI,
     JERRY A. BOATZ, BRETT BODE, KURT BRORSEN, KURT R. BRORSEN,
     LAIMUTIS BYTAUTAS, CALEB CARLIN, LAURA CARRINGTON,
     GALINA CHABAN, BENOIT CHAMPAGNE, WEI CHEN, MAHITO CHIBA,
     DAN CHIPMAN, CHEOL HO CHOI, TANNER CULPITT,
     DIPAYAN DATTA, PAUL DAY, ALBERT DEFUSCO,
     NUWAN DESILVA, J. EMILIANO DEUSTUA,
     TIM DUDLEY, MICHEL DUPUIS, STEVEN T. ELBERT,
     DMITRI FEDOROV, ALEX FINDLATER, GRAHAM FLETCHER,
     MARK FREITAG, CHRISTIAN FRIEDL, DAVID GARMER,
     IGOR S. GERASIMOV, KURT GLAESEMANN, MARK S. GORDON,
     JEFFREY GOUR, FENG LONG GU, EMILIE B. GUIDEZ,
     ANASTASIA GUNINA, SHARON HAMMES-SCHIFFER, MASATAKE HARUTA,
     KIMIHIKO HIRAO, YASUHIRO IKABATA, TZVETELIN IORDANOV,
     STEPHAN IRLE, KAZUYA ISHIMURA, JOE IVANIC, FRANK JENSEN,
     JAN H. JENSEN, VISVALDAS KAIRYS, MUNEAKI KAMIYA,
     MICHIO KATOUDA, NAOAKI KAWAKAMI, DAN KEMP, BERNARD KIRTMAN,
     KAZUO KITAURA, MARIUSZ KLOBUKOWSKI, MASATO KOBAYASHI,
     PRAKASHAN KORAMBATH, JACEK KORCHOWIEC, SHIRO KOSEKI,
     KAROL KOWALSKI, JIMMY KROMANN, STANISLAW KUCHARSKI,
     HENRY KURTZ, SAROM SOK LEANG, HUI LI, SHUHUA LI, WEI LI,
     JESSE LUTZ, ALEKSANDR O. LYKHIN, MARCIN MAKOWSKI,
     JOANI MATO, NIKITA MATSUNAGA, BENEDETTA MENNUCCI,
     GRANT MERRILL, NORIYUKI MINEZAWA, VLADIMIR MIRONOV,
     EISAKU MIYOSHI, JOHN A. MONTGOMERY JR., HIROTOSHI MORI,
     JONATHAN MULLIN, MONIKA MUSIAL, SHIGERU NAGASE,
     TAKESHI NAGATA, HIROMI NAKAI, TAKAHITO NAKAJIMA,
     YUYA NAKAJIMA, HARUYUKI NAKANO, HIROYA NAKATA, SEAN NEDD,
     HEATHER NETZLOFF, KIET A. NGUYEN, YOSHIO NISHIMOTO,
     BOSILJKA NJEGIC, RYAN OLSON, MIKE PAK, ROBERTO PEVERATI,
     BUU PHAM, PIOTR PIECUCH, ANNA POMOGAEVA, DAVID POOLE,
     SPENCER PRUITT, OLIVIER QUINET, LUKE ROSKOP,
     KLAUS RUEDENBERG, ANDREW SAND, TOSAPORN SATTASATHUCHANA,
     NOZOMI SAWADA, MICHAEL W. SCHMIDT, PATRICK E. SCHNEIDER,
     JUNJI SEINO, PRACHI SHARMA, JUN SHEN, JIM SHOEMAKER,
     YINAN SHU, DEJUN SI, JONATHAN SKONE, LYUDMILA SLIPCHENKO,
     TONY SMITH, JIE SONG, MARK SPACKMAN, CASPER STEINMANN,
     WALT STEVENS, PEIFENG SU, SHUJUN SU, CHET SWALINA,
     TETSUYA TAKETSUGU, ZHEN TAO, NANDUN THELLAMUREGE
     SEIKEN TOKURA, JACOPO TOMASI, TSUGUKI TOUMA, TAKAO TSUNEDA,
     HIROAKI UMEDA, JORGE LUIS GALVEZ VALLEJO, YALI WANG,
     SIMON WEBB, AARON WEST, THERESA L. WINDUS, MARTA WLOCH,
     PENG XU, KIYOSHI YAGI, SUSUMU YANAGISAWA, YANG YANG,
     SOOHAENG YOO, TAKESHI YOSHIKAWA, FEDERICO ZAHARIEV,
     TOBY ZENG

  WHO ARE SUPPORTED BY THEIR INSTITUTION/UNIVERSITY/COMPANY/GROUP
  (IN ALPHABETICAL ORDER):

     EP ANALYTICS, FACULTES UNIVERSITAIRES NOTRE-DAME DE LA PAIX,
     INSTITUTE FOR MOLECULAR SCIENCE, IOWA STATE UNIVERSITY,
     JACKSON STATE UNIVERSITY, JOHANNES KEPLER UNIVERSITY LINZ,
     KYUSHU UNIVERSITY, MICHIGAN STATE UNIVERSITY,
     MIE UNIVERSITY, MOSCOW STATE UNIVERSITY,
     N. COPERNICUS UNIVERSITY, NAGOYA UNIVERSITY,
     NANJING UNIVERSITY, NAT. INST. OF ADVANCED INDUSTRIAL
     SCIENCE AND TECHNOLOGY, NATIONAL INST. OF STANDARDS AND
     TECHNOLOGY, NESMEYANOV INSTITUTE OF ORGANOELEMENT COMPOUNDS
     OF RUSSIAN ACADEMY OF SCIENCES, OSAKA PREFECTURE UNIVERSITY,
     PENNSYLVANIA STATE UNIVERSITY, TOKYO INSTITUTE OF TECHNOLOGY,
     UNIVERSITY OF AARHUS, UNIVERSITY OF ALBERTA,
     UNIVERSITY OF CALIFORNIA AT SANTA BARBARA,
     UNIVERSITY OF COPENHAGEN, UNIVERSITY OF IOWA,
     UNIVERSITY OF MEMPHIS, UNIVERSITY OF MINNESOTA,
     UNIVERSITY OF NEBRASKA, UNIVERSITY OF NEW ENGLAND,
     UNIVERSITY OF NOTRE DAME, UNIVERSITY OF PISA,
     UNIVERSITY OF SILESIA, UNIVERSITY OF TOKYO,
     UNIVERSITY OF ZURICH, WASEDA UNIVERSITY, YALE UNIVERSITY

  GAMESS SOFTWARE MANAGEMENT TEAM FOR THIS RELEASE:
     MARK S. GORDON (TEAM LEAD),
     BRETT BODE (SENIOR ADVISOR),
     GIUSEPPE BARCA,
     COLLEEN BERTONI,
     KRISTOPHER KEIPERT (ADVISOR),
     SAROM S. LEANG (DEVELOPMENT LEAD),
     BUU PHAM,
     JORGE LUIS GALVEZ VALLEJO (WEBSITE ADMINISTRATOR),
     PENG XU


 PARALLEL VERSION RUNNING ON       26 PROCESSORS IN       26 NODES.

 EXECUTION OF GAMESS BEGUN 14:45:18 01-AUG-2021    

            ECHO OF THE FIRST FEW INPUT CARDS -
 INPUT CARD> $SYSTEM MWORDS=125 $END                                                        
 INPUT CARD> $CONTRL DFTTYP=B3LYP RUNTYP=HESSIAN ICHARG=1 MULT=1 $END                       
 INPUT CARD> $BASIS GBASIS=N31 NGAUSS=6 NDFUNC=1 $END                                       
 INPUT CARD> $FORCE METHOD=SEMINUM $END                                                     
 INPUT CARD> $DATA                                                                          
 INPUT CARD>Cluster/6-31G                                                                   
 INPUT CARD>C1                                                                              
 INPUT CARD>H           1.0  14.0238162415 109.8013206541  13.2701334609                    
 INPUT CARD>C           6.0  13.2471037582 109.0617920970  13.0400397131                    
 INPUT CARD>H           1.0  12.2882447340 109.5195173076  13.2848496918                    
 INPUT CARD>C           6.0  13.3044386433 108.7810892500  11.5090082269                    
 INPUT CARD>H           1.0  12.9783116808 109.7120554993  11.0364465716                    
 INPUT CARD>H           1.0  14.3453076765 108.6315378601  11.2012958263                    
 INPUT CARD>C           6.0  12.4770316853 107.5915833235  10.9354107231                    
 INPUT CARD>H           1.0  12.1157045590 107.8666537174   9.9375684368                    
 INPUT CARD>H           1.0  13.0897662519 106.6940709326  10.8215537812                    
 INPUT CARD>C           6.0  11.2911966837 107.2318580360  11.7947994163                    
 INPUT CARD>O           8.0  10.5253011609 108.1645600922  12.2365861146                    
 INPUT CARD>O           8.0  11.1465698651 106.0409587998  12.2331085045                    
 INPUT CARD>C           6.0  13.4214302105 107.8757834777  13.9772251829                    
 INPUT CARD>O           8.0  12.4470699945 107.3961830323  14.6369116700                    
 INPUT CARD>N           7.0  14.6422954232 107.3636227075  14.0978766899                    
 INPUT CARD>H           1.0  15.3799523865 107.7916245577  13.5514382778                    
 INPUT CARD>C           6.0  14.9946995964 106.2157162274  14.9360280750                    
 INPUT CARD>H           1.0  14.7216414509 105.2763628653  14.4444064885                    
 INPUT CARD>H           1.0  16.0722666532 106.2320307122  15.1062664590                    
 INPUT CARD>H           1.0  14.4761095979 106.2875667359  15.8936818199                    
 INPUT CARD>CA         20.0  10.3337417465 106.9861121144  14.0643648701                    
 INPUT CARD> $END                                                                           
  125000000 WORDS OF MEMORY AVAILABLE

     BASIS OPTIONS
     -------------
     GBASIS=N31          IGAUSS=       6      POLAR=POPN31  
     NDFUNC=       1     NFFUNC=       0     DIFFSP=       F
     NPFUNC=       0      DIFFS=       F     BASNAM=        


     RUN TITLE
     ---------
 Cluster/6-31G                                                                   

 THE POINT GROUP OF THE MOLECULE IS C1      
 THE ORDER OF THE PRINCIPAL AXIS IS     0

 ATOM      ATOMIC                      COORDINATES (BOHR)
           CHARGE         X                   Y                   Z
 H           1.0    26.5011699986      207.4944091262       25.0769160616
 C           6.0    25.0333962339      206.0969027932       24.6421019268
 H           1.0    23.2214154173      206.9618780189       25.1047257056
 C           6.0    25.1417434563      205.5664513284       21.7488719393
 H           1.0    24.5254528600      207.3257224434       20.8558598985
 H           1.0    27.1087007181      205.2838401804       21.1673798191
 C           6.0    23.5781710253      203.3186110666       20.6649298299
 H           1.0    22.8953617647      203.8384187384       18.7792813298
 H           1.0    24.7360714594      201.6225585772       20.4497714079
 C           6.0    21.3372678057      202.6388288423       22.2889389769
 O           8.0    19.8899351324      204.4013801567       23.1237947818
 O           8.0    21.0639627480      200.3883556069       23.1172230516
 C           6.0    25.3628254612      203.8556714837       26.4131256644
 O           8.0    23.5215516396      202.9493580583       27.6597523628
 N           7.0    27.6699261811      202.8878279663       26.6411239526
 H           1.0    29.0638957147      203.6966341854       25.6085050846
 C           6.0    28.3358735054      200.7185992594       28.2250004067
 H           1.0    27.8198684317      198.9434787994       27.2959703185
 H           1.0    30.3721799761      200.7494291653       28.5467043050
 H           1.0    27.3558805083      200.8543770326       30.0347035756
 CA         20.0    19.5279403288      202.1744363879       26.5777957958

          INTERNUCLEAR DISTANCES (ANGS.)
          ------------------------------

                1 H          2 C          3 H          4 C          5 H     

   1 H       0.0000000    1.0968719 *  1.7583623 *  2.1586890 *  2.4678746 *
   2 C       1.0968719 *  0.0000000    1.0903462 *  1.5576068 *  2.1235530 *
   3 H       1.7583623 *  1.0903462 *  0.0000000    2.1752101 *  2.3597839 *
   4 C       2.1586890 *  1.5576068 *  2.1752101 *  0.0000000    1.0937877 *
   5 H       2.4678746 *  2.1235530 *  2.3597839 *  1.0937877 *  0.0000000  
   6 H       2.3982989 *  2.1845250 *  3.0596098    1.0956555 *  1.7502490 *
   7 C       3.5674097    2.6802963 *  3.0450671    1.5583776 *  2.1812593 *
   8 H       4.2999786    3.5119436    3.7371139    2.1722578 *  2.3145479 *
   9 H       4.0648484    3.2484671    3.8331985    2.2077870 *  3.0276776  
  10 C       4.0306275    2.9537865 *  2.9064995 *  2.5563523 *  3.0939999  
  11 O       3.9983513    2.9763690 *  2.4581976 *  2.9382108 *  3.1388433  
  12 O       4.8470908    3.7668043    3.8091929    3.5621670    4.2736669  
  13 C       2.1378824 *  1.5216185 *  2.1131384 *  2.6316080 *  3.4952007  
  14 O       3.1841637    2.4421932 *  2.5222699 *  3.5265885    4.3137955  
  15 N       2.6476493 *  2.4391306 *  3.2940020    3.2405728    4.2019439  
  16 H       2.4407204 *  2.5345409 *  3.5518079    3.0754379    3.9725453  
  17 C       4.0711643    3.8404441    4.5789070    4.6024543    5.6122139  
  18 H       4.7266394    4.2983697    5.0269624    4.7862442    5.8590749  
  19 H       4.5063693    4.5009319    5.3332869    5.2056544    6.1843806  
  20 H       4.4084058    4.1653397    4.6944928    5.1784003    6.1288870  
  21 CA      4.7088058    3.7209364    3.2933065    4.3100847    4.8572427  

                6 H          7 C          8 H          9 H         10 C     

   1 H       2.3982989 *  3.5674097    4.2999786    4.0648484    4.0306275  
   2 C       2.1845250 *  2.6802963 *  3.5119436    3.2484671    2.9537865 *
   3 H       3.0596098    3.0450671    3.7371139    3.8331985    2.9064995 *
   4 C       1.0956555 *  1.5583776 *  2.1722578 *  2.2077870 *  2.5563523 *
   5 H       1.7502490 *  2.1812593 *  2.3145479 *  3.0276776    3.0939999  
   6 H       0.0000000    2.1546822 *  2.6745438 *  2.3397364 *  3.4115897  
   7 C       2.1546822 *  0.0000000    1.0963167 *  1.0926736 *  1.5080305 *
   8 H       2.6745438 *  1.0963167 *  0.0000000    1.7621511 *  2.1288696 *
   9 H       2.3397364 *  1.0926736 *  1.7621511 *  0.0000000    2.1145388 *
  10 C       3.4115897    1.5080305 *  2.1288696 *  2.1145388 *  0.0000000  
  11 O       3.9852659    2.4146660 *  2.8113366 *  3.2773672    1.2851866 *
  12 O       4.2435434    2.4204513 *  3.0889947    2.4889866 *  1.2772129 *
  13 C       3.0216714    3.1977013    4.2454481    3.3859574    3.1169724  
  14 O       4.1149561    3.7067760    4.7344453    3.9322990    3.0725637  
  15 N       3.1758450    3.8394692    4.8933492    3.6868602    4.0683399  
  16 H       2.7016872 *  3.9128717    4.8704208    3.7285179    4.4852025  
  17 C       4.4951228    4.9230683    5.9999005    4.5592207    4.9614308  
  18 H       4.6815161    4.7656658    5.8148175    4.2187646    4.7552424  
  19 H       4.8978380    5.6718723    6.7113199    5.2409496    5.9011947  
  20 H       5.2468844    5.5028378    6.5985085    5.2738673    5.2760016  
  21 CA      5.1958879    3.8406564    4.5805233    4.2657687    2.4754875 *

               11 O         12 O         13 C         14 O         15 N     

   1 H       3.9983513    4.8470908    2.1378824 *  3.1841637    2.6476493 *
   2 C       2.9763690 *  3.7668043    1.5216185 *  2.4421932 *  2.4391306 *
   3 H       2.4581976 *  3.8091929    2.1131384 *  2.5222699 *  3.2940020  
   4 C       2.9382108 *  3.5621670    2.6316080 *  3.5265885    3.2405728  
   5 H       3.1388433    4.2736669    3.4952007    4.3137955    4.2019439  
   6 H       3.9852659    4.2435434    3.0216714    4.1149561    3.1758450  
   7 C       2.4146660 *  2.4204513 *  3.1977013    3.7067760    3.8394692  
   8 H       2.8113366 *  3.0889947    4.2454481    4.7344453    4.8933492  
   9 H       3.2773672    2.4889866 *  3.3859574    3.9322990    3.6868602  
  10 C       1.2851866 *  1.2772129 *  3.1169724    3.0725637    4.0683399  
  11 O       0.0000000    2.2126160 *  3.3912800    3.1694103    4.5886322  
  12 O       2.2126160 *  0.0000000    3.4034562    3.0506070    4.1769483  
  13 C       3.3912800    3.4034562    0.0000000    1.2706615 *  1.3294274 *
  14 O       3.1694103    3.0506070    1.2706615 *  0.0000000    2.2606710 *
  15 N       4.5886322    4.1769483    1.3294274 *  2.2606710 *  0.0000000  
  16 H       5.0433675    4.7670066    2.0060375 *  3.1522096    1.0128763 *
  17 C       5.5731949    4.7057855    2.4799804 *  2.8237190 *  1.4643687 *
  18 H       5.5520650    4.2726552    2.9437723 *  3.1151840    2.1173173 *
  19 H       6.5374736    5.7056142    3.3171661    3.8363518    2.0837870 *
  20 H       5.7014332    4.9544371    2.7032549 *  2.6316350 *  2.1001024 *
  21 CA      2.1831651 *  2.2152887 *  3.2144873    2.2275826 *  4.3251904  

               16 H         17 C         18 H         19 H         20 H     

   1 H       2.4407204 *  4.0711643    4.7266394    4.5063693    4.4084058  
   2 C       2.5345409 *  3.8404441    4.2983697    4.5009319    4.1653397  
   3 H       3.5518079    4.5789070    5.0269624    5.3332869    4.6944928  
   4 C       3.0754379    4.6024543    4.7862442    5.2056544    5.1784003  
   5 H       3.9725453    5.6122139    5.8590749    6.1843806    6.1288870  
   6 H       2.7016872 *  4.4951228    4.6815161    4.8978380    5.2468844  
   7 C       3.9128717    4.9230683    4.7656658    5.6718723    5.5028378  
   8 H       4.8704208    5.9999005    5.8148175    6.7113199    6.5985085  
   9 H       3.7285179    4.5592207    4.2187646    5.2409496    5.2738673  
  10 C       4.4852025    4.9614308    4.7552424    5.9011947    5.2760016  
  11 O       5.0433675    5.5731949    5.5520650    6.5374736    5.7014332  
  12 O       4.7670066    4.7057855    4.2726552    5.7056142    4.9544371  
  13 C       2.0060375 *  2.4799804 *  2.9437723 *  3.3171661    2.7032549 *
  14 O       3.1522096    2.8237190 *  3.1151840    3.8363518    2.6316350 *
  15 N       1.0128763 *  1.4643687 *  2.1173173 *  2.0837870 *  2.1001024 *
  16 H       0.0000000    2.1328375 *  2.7490556 *  2.3084893 *  2.9266408 *
  17 C       2.1328375 *  0.0000000    1.0948229 *  1.0910536 *  1.0914205 *
  18 H       2.7490556 *  1.0948229 *  0.0000000    1.7820068 *  1.7841575 *
  19 H       2.3084893 *  1.0910536 *  1.7820068 *  0.0000000    1.7806809 *
  20 H       2.9266408 *  1.0914205 *  1.7841575 *  1.7806809 *  0.0000000  
  21 CA      5.1357751    4.8039395    4.7245463    5.8808899    4.5818749  

               21 CA    

   1 H       4.7088058  
   2 C       3.7209364  
   3 H       3.2933065  
   4 C       4.3100847  
   5 H       4.8572427  
   6 H       5.1958879  
   7 C       3.8406564  
   8 H       4.5805233  
   9 H       4.2657687  
  10 C       2.4754875 *
  11 O       2.1831651 *
  12 O       2.2152887 *
  13 C       3.2144873  
  14 O       2.2275826 *
  15 N       4.3251904  
  16 H       5.1357751  
  17 C       4.8039395  
  18 H       4.7245463  
  19 H       5.8808899  
  20 H       4.5818749  
  21 CA      0.0000000  

  * ... LESS THAN  3.000


     ATOMIC BASIS SET
     ----------------
 THE CONTRACTED PRIMITIVE FUNCTIONS HAVE BEEN UNNORMALIZED
 THE CONTRACTED BASIS FUNCTIONS ARE NOW NORMALIZED TO UNITY

  SHELL TYPE  PRIMITIVE        EXPONENT          CONTRACTION COEFFICIENT(S)

 H         

      1   S       1            18.7311370    0.033494604338
      1   S       2             2.8253944    0.234726953484
      1   S       3             0.6401217    0.813757326146

      2   S       4             0.1612778    1.000000000000

 C         

      3   S       5          3047.5248800    0.001834737132
      3   S       6           457.3695180    0.014037322813
      3   S       7           103.9486850    0.068842622264
      3   S       8            29.2101553    0.232184443216
      3   S       9             9.2866630    0.467941348435
      3   S      10             3.1639270    0.362311985337

      4   L      11             7.8682723   -0.119332419775    0.068999066591
      4   L      12             1.8812885   -0.160854151696    0.316423960957
      4   L      13             0.5442493    1.143456437840    0.744308290898

      5   L      14             0.1687145    1.000000000000    1.000000000000

      6   D      15             0.8000000    1.000000000000

 H         

      7   S      16            18.7311370    0.033494604338
      7   S      17             2.8253944    0.234726953484
      7   S      18             0.6401217    0.813757326146

      8   S      19             0.1612778    1.000000000000

 C         

      9   S      20          3047.5248800    0.001834737132
      9   S      21           457.3695180    0.014037322813
      9   S      22           103.9486850    0.068842622264
      9   S      23            29.2101553    0.232184443216
      9   S      24             9.2866630    0.467941348435
      9   S      25             3.1639270    0.362311985337

     10   L      26             7.8682723   -0.119332419775    0.068999066591
     10   L      27             1.8812885   -0.160854151696    0.316423960957
     10   L      28             0.5442493    1.143456437840    0.744308290898

     11   L      29             0.1687145    1.000000000000    1.000000000000

     12   D      30             0.8000000    1.000000000000

 H         

     13   S      31            18.7311370    0.033494604338
     13   S      32             2.8253944    0.234726953484
     13   S      33             0.6401217    0.813757326146

     14   S      34             0.1612778    1.000000000000

 H         

     15   S      35            18.7311370    0.033494604338
     15   S      36             2.8253944    0.234726953484
     15   S      37             0.6401217    0.813757326146

     16   S      38             0.1612778    1.000000000000

 C         

     17   S      39          3047.5248800    0.001834737132
     17   S      40           457.3695180    0.014037322813
     17   S      41           103.9486850    0.068842622264
     17   S      42            29.2101553    0.232184443216
     17   S      43             9.2866630    0.467941348435
     17   S      44             3.1639270    0.362311985337

     18   L      45             7.8682723   -0.119332419775    0.068999066591
     18   L      46             1.8812885   -0.160854151696    0.316423960957
     18   L      47             0.5442493    1.143456437840    0.744308290898

     19   L      48             0.1687145    1.000000000000    1.000000000000

     20   D      49             0.8000000    1.000000000000

 H         

     21   S      50            18.7311370    0.033494604338
     21   S      51             2.8253944    0.234726953484
     21   S      52             0.6401217    0.813757326146

     22   S      53             0.1612778    1.000000000000

 H         

     23   S      54            18.7311370    0.033494604338
     23   S      55             2.8253944    0.234726953484
     23   S      56             0.6401217    0.813757326146

     24   S      57             0.1612778    1.000000000000

 C         

     25   S      58          3047.5248800    0.001834737132
     25   S      59           457.3695180    0.014037322813
     25   S      60           103.9486850    0.068842622264
     25   S      61            29.2101553    0.232184443216
     25   S      62             9.2866630    0.467941348435
     25   S      63             3.1639270    0.362311985337

     26   L      64             7.8682723   -0.119332419775    0.068999066591
     26   L      65             1.8812885   -0.160854151696    0.316423960957
     26   L      66             0.5442493    1.143456437840    0.744308290898

     27   L      67             0.1687145    1.000000000000    1.000000000000

     28   D      68             0.8000000    1.000000000000

 O         

     29   S      69          5484.6716600    0.001831074430
     29   S      70           825.2349460    0.013950172200
     29   S      71           188.0469580    0.068445078098
     29   S      72            52.9645000    0.232714335992
     29   S      73            16.8975704    0.470192897984
     29   S      74             5.7996353    0.358520852987

     30   L      75            15.5396162   -0.110777549525    0.070874268231
     30   L      76             3.5999336   -0.148026262701    0.339752839147
     30   L      77             1.0137618    1.130767015354    0.727158577316

     31   L      78             0.2700058    1.000000000000    1.000000000000

     32   D      79             0.8000000    1.000000000000

 O         

     33   S      80          5484.6716600    0.001831074430
     33   S      81           825.2349460    0.013950172200
     33   S      82           188.0469580    0.068445078098
     33   S      83            52.9645000    0.232714335992
     33   S      84            16.8975704    0.470192897984
     33   S      85             5.7996353    0.358520852987

     34   L      86            15.5396162   -0.110777549525    0.070874268231
     34   L      87             3.5999336   -0.148026262701    0.339752839147
     34   L      88             1.0137618    1.130767015354    0.727158577316

     35   L      89             0.2700058    1.000000000000    1.000000000000

     36   D      90             0.8000000    1.000000000000

 C         

     37   S      91          3047.5248800    0.001834737132
     37   S      92           457.3695180    0.014037322813
     37   S      93           103.9486850    0.068842622264
     37   S      94            29.2101553    0.232184443216
     37   S      95             9.2866630    0.467941348435
     37   S      96             3.1639270    0.362311985337

     38   L      97             7.8682723   -0.119332419775    0.068999066591
     38   L      98             1.8812885   -0.160854151696    0.316423960957
     38   L      99             0.5442493    1.143456437840    0.744308290898

     39   L     100             0.1687145    1.000000000000    1.000000000000

     40   D     101             0.8000000    1.000000000000

 O         

     41   S     102          5484.6716600    0.001831074430
     41   S     103           825.2349460    0.013950172200
     41   S     104           188.0469580    0.068445078098
     41   S     105            52.9645000    0.232714335992
     41   S     106            16.8975704    0.470192897984
     41   S     107             5.7996353    0.358520852987

     42   L     108            15.5396162   -0.110777549525    0.070874268231
     42   L     109             3.5999336   -0.148026262701    0.339752839147
     42   L     110             1.0137618    1.130767015354    0.727158577316

     43   L     111             0.2700058    1.000000000000    1.000000000000

     44   D     112             0.8000000    1.000000000000

 N         

     45   S     113          4173.5114600    0.001834772160
     45   S     114           627.4579110    0.013994627002
     45   S     115           142.9020930    0.068586551812
     45   S     116            40.2343293    0.232240873040
     45   S     117            12.8202129    0.469069948082
     45   S     118             4.3904370    0.360455199063

     46   L     119            11.6263619   -0.114961181702    0.067579743878
     46   L     120             2.7162798   -0.169117478561    0.323907295893
     46   L     121             0.7722184    1.145851947027    0.740895139755

     47   L     122             0.2120315    1.000000000000    1.000000000000

     48   D     123             0.8000000    1.000000000000

 H         

     49   S     124            18.7311370    0.033494604338
     49   S     125             2.8253944    0.234726953484
     49   S     126             0.6401217    0.813757326146

     50   S     127             0.1612778    1.000000000000

 C         

     51   S     128          3047.5248800    0.001834737132
     51   S     129           457.3695180    0.014037322813
     51   S     130           103.9486850    0.068842622264
     51   S     131            29.2101553    0.232184443216
     51   S     132             9.2866630    0.467941348435
     51   S     133             3.1639270    0.362311985337

     52   L     134             7.8682723   -0.119332419775    0.068999066591
     52   L     135             1.8812885   -0.160854151696    0.316423960957
     52   L     136             0.5442493    1.143456437840    0.744308290898

     53   L     137             0.1687145    1.000000000000    1.000000000000

     54   D     138             0.8000000    1.000000000000

 H         

     55   S     139            18.7311370    0.033494604338
     55   S     140             2.8253944    0.234726953484
     55   S     141             0.6401217    0.813757326146

     56   S     142             0.1612778    1.000000000000

 H         

     57   S     143            18.7311370    0.033494604338
     57   S     144             2.8253944    0.234726953484
     57   S     145             0.6401217    0.813757326146

     58   S     146             0.1612778    1.000000000000

 H         

     59   S     147            18.7311370    0.033494604338
     59   S     148             2.8253944    0.234726953484
     59   S     149             0.6401217    0.813757326146

     60   S     150             0.1612778    1.000000000000

 CA        

     61   S     151         35264.8600000    0.001813501124
     61   S     152          5295.5030000    0.013884930952
     61   S     153          1206.0200000    0.068361624687
     61   S     154           339.6839000    0.235618816155
     61   S     155           108.6264000    0.482063933051
     61   S     156            36.9210300    0.342981923516

     62   L     157           706.3096000    0.002448225082    0.004020370978
     62   L     158           167.8187000    0.032415041089    0.031006009834
     62   L     159            53.8255800    0.122621904120    0.133727899282
     62   L     160            20.0163800   -0.043169651451    0.336798298192
     62   L     161             7.9702790   -0.612699520587    0.463128097514
     62   L     162             3.2120590   -0.448754015078    0.225753198788

     63   L     163            14.1951800    0.010845000553   -0.012896211378
     63   L     164             4.8808280    0.208833310655   -0.010251981096
     63   L     165             2.1603900    0.031503381607    0.195978120942
     63   L     166             0.9878990   -0.552651828196    0.435793346569
     63   L     167             0.4495170   -0.543799727745    0.399645242706
     63   L     168             0.1873870   -0.066693423403    0.097136370380

     64   L     169             1.0322710   -0.044397180858   -0.429862097351
     64   L     170             0.3811710   -0.328456158386    0.006935828957
     64   L     171             0.0651310    1.163009498569    0.970593294018

     65   L     172             0.0260100    1.000000000000    1.000000000000

     66   D     173            10.1106700    0.087476714301
     66   D     174             2.5587690    0.379563475272
     66   D     175             0.7434200    0.718039253221

     67   D     176             0.2008780    1.000000000000

     68   D     177             0.0502000    1.000000000000

 TOTAL NUMBER OF BASIS SET SHELLS             =   68
 NUMBER OF CARTESIAN GAUSSIAN BASIS FUNCTIONS =  205
 NUMBER OF ELECTRONS                          =   96
 CHARGE OF MOLECULE                           =    1
 SPIN MULTIPLICITY                            =    1
 NUMBER OF OCCUPIED ORBITALS (ALPHA)          =   48
 NUMBER OF OCCUPIED ORBITALS (BETA )          =   48
 TOTAL NUMBER OF ATOMS                        =   21
 THE NUCLEAR REPULSION ENERGY IS      811.0220366449

 SELECTED MURRAY-HANDY-LAMING RADIAL GRID

 LEGACY BECKE'S FUZZY CELL METHOD

 SELECTED ORIGINAL BECKE'S PARTITION FUNCTION

     LEBEDEV GRID-BASED DFT OPTIONS
     ------------------------------
     DFTTYP=B3LYP   
     NRAD  =      96     NLEB  =     302
     NRAD0 =      96     NLEB0 =     302
     SWOFF =    5.00E-03 (PURE SCF -> DFT)
     SWITCH=    3.00E-04 (COARSE -> TIGHT GRID)
     THRESH=    0.00E+00 GTHRE=    1.00E+00

 GRIMME'S EMPIRICAL DISPERSION CORRECTION= F

     $CONTRL OPTIONS
     ---------------
 SCFTYP=RHF          RUNTYP=HESSIAN      EXETYP=RUN     
 MPLEVL=       0     CITYP =NONE         CCTYP =NONE         VBTYP =NONE    
 DFTTYP=B3LYP        TDDFT =NONE    
 MULT  =       1     ICHARG=       1     NZVAR =       0     COORD =UNIQUE  
 PP    =NONE         RELWFN=NONE         LOCAL =NONE         NUMGRD=       F
 ISPHER=      -1     NOSYM =       0     MAXIT =      30     UNITS =ANGS    
 PLTORB=       F     MOLPLT=       F     AIMPAC=       F     FRIEND=        
 NPRINT=       7     IREST =       0     GEOM  =INPUT   
 NORMF =       0     NORMP =       0     ITOL  =      20     ICUT  =       9
 INTTYP=BEST         GRDTYP=BEST         QMTTOL= 1.0E-06

     $SYSTEM OPTIONS
     ---------------
  REPLICATED MEMORY=   125000000 WORDS (ON EVERY NODE).
 DISTRIBUTED MEMDDI=           0 MILLION WORDS IN AGGREGATE,
 MEMDDI DISTRIBUTED OVER  26 PROCESSORS IS           0 WORDS/PROCESSOR.
 TOTAL MEMORY REQUESTED ON EACH PROCESSOR=   125000000 WORDS.
 TIMLIM=      525600.00 MINUTES, OR     365.0 DAYS.
 PARALL= T  BALTYP=  DLB     KDIAG=    0  COREFL= F
 MXSEQ2=     300 MXSEQ3=     150  mem10=         0  mem22=         0

 Using Gaussians for PCM contribution to MEP, params: 0.10000E+01 0.10000E-07

          ----------------
          PROPERTIES INPUT
          ----------------

     MOMENTS            FIELD           POTENTIAL          DENSITY
 IEMOM =       1   IEFLD =       0   IEPOT =       0   IEDEN =       0
 WHERE =COMASS     WHERE =NUCLEI     WHERE =NUCLEI     WHERE =NUCLEI  
 OUTPUT=BOTH       OUTPUT=BOTH       OUTPUT=BOTH       OUTPUT=BOTH    
 IEMINT=       0   IEFINT=       0                     IEDINT=       0
                                                       MORB  =       0
          EXTRAPOLATION IN EFFECT
          DIIS IN EFFECT
 ORBITAL PRINTING OPTION: NPREO=     1   205     2     1

     -------------------------------
     INTEGRAL TRANSFORMATION OPTIONS
     -------------------------------
     NWORD  =            0
     CUTOFF = 1.0E-09     MPTRAN =       0
     DIRTRF =       F     AOINTS =DUP     

          ----------------------
          INTEGRAL INPUT OPTIONS
          ----------------------
 NOPK  =       1 NORDER=       0 SCHWRZ=       T

     ------------------------------------------
     THE POINT GROUP IS C1 , NAXIS= 0, ORDER= 1
     ------------------------------------------

     DIMENSIONS OF THE SYMMETRY SUBSPACES ARE
 A   =  205

 ..... DONE SETTING UP THE RUN .....
 CPU     0: STEP CPU TIME=     0.08 TOTAL CPU TIME=          0.1 (      0.0 MIN)
 TOTAL WALL CLOCK TIME=          0.1 SECONDS, CPU UTILIZATION IS   100.00%

     ---------------------------------
     HESSIAN MATRIX CONTROL PARAMETERS
     ---------------------------------
     METHOD=SEMINUM    NVIB  =       2   VIBSIZ= 0.01000
     RDHESS=       F   PURIFY=       F   PRTIFC=       F
     VIBANL=       T   DECOMP=       F   PROJCT=       F
     SCLFAC= 1.00000   PRTSCN=       F   NPRT  =       0
     PULCOR=       F   NPUN  =       0   REDOVB=       T
     HSSTYP=GENERAL 
     THERMOCHEMISTRY WILL BE PRINTED FOR    1 TEMPERATURES:
      298.15000

               * * * EFFICIENCY NOTE * * *
 THIS CALCULATION CAN BE RUN WITH DIFFERENTIATION METHOD=ANALYTIC
 THIS MIGHT BE MORE ACCURATE AND/OR FASTER THAN YOUR CHOICE,
 BUT THE REQUESTED CALCULATION METHOD=SEMINUM  IS PROCEEDING.

1   ATOM  0
                                        -------------------
   COORD  0                             NUCLEAR COORDINATES
                                        -------------------
     VIB  0

                       ATOM             X              Y              Z

                 1  H               26.501170     207.494409      25.076916
                 2  C               25.033396     206.096903      24.642102
                 3  H               23.221415     206.961878      25.104726
                 4  C               25.141743     205.566451      21.748872
                 5  H               24.525453     207.325722      20.855860
                 6  H               27.108701     205.283840      21.167380
                 7  C               23.578171     203.318611      20.664930
                 8  H               22.895362     203.838419      18.779281
                 9  H               24.736071     201.622559      20.449771
                10  C               21.337268     202.638829      22.288939
                11  O               19.889935     204.401380      23.123795
                12  O               21.063963     200.388356      23.117223
                13  C               25.362825     203.855671      26.413126
                14  O               23.521552     202.949358      27.659752
                15  N               27.669926     202.887828      26.641124
                16  H               29.063896     203.696634      25.608505
                17  C               28.335874     200.718599      28.225000
                18  H               27.819868     198.943479      27.295970
                19  H               30.372180     200.749429      28.546704
                20  H               27.355881     200.854377      30.034704
                21  CA              19.527940     202.174436      26.577796

          ********************
          1 ELECTRON INTEGRALS
          ********************
 ...... END OF ONE-ELECTRON INTEGRALS ......
 CPU     0: STEP CPU TIME=     0.01 TOTAL CPU TIME=          0.1 (      0.0 MIN)
 TOTAL WALL CLOCK TIME=          0.1 SECONDS, CPU UTILIZATION IS   100.00%

          -------------
          GUESS OPTIONS
          -------------
          GUESS =HUCKEL            NORB  =       0          NORDER=       0
          MIX   =       F          PRTMO =       F          PUNMO =       F
          TOLZ  = 1.0E-08          TOLE  = 1.0E-05
          SYMDEN=       F          PURIFY=       F

 INITIAL GUESS ORBITALS GENERATED BY HUCKEL   ROUTINE.
 HUCKEL GUESS REQUIRES    340228 WORDS.

 SYMMETRIES FOR INITIAL GUESS ORBITALS FOLLOW.   BOTH SET(S).
    48 ORBITALS ARE OCCUPIED (   19 CORE ORBITALS).
    20=A       21=A       22=A       23=A       24=A       25=A       26=A   
    27=A       28=A       29=A       30=A       31=A       32=A       33=A   
    34=A       35=A       36=A       37=A       38=A       39=A       40=A   
    41=A       42=A       43=A       44=A       45=A       46=A       47=A   
    48=A       49=A       50=A       51=A       52=A       53=A       54=A   
    55=A       56=A       57=A       58=A   
 ...... END OF INITIAL ORBITAL SELECTION ......
 CPU     0: STEP CPU TIME=     0.09 TOTAL CPU TIME=          0.2 (      0.0 MIN)
 TOTAL WALL CLOCK TIME=          0.2 SECONDS, CPU UTILIZATION IS   100.00%

                    ----------------------
                    AO INTEGRAL TECHNOLOGY
                    ----------------------
     S,P,L SHELL ROTATED AXIS INTEGRALS, REPROGRAMMED BY
        KAZUYA ISHIMURA (IMS) AND JOSE SIERRA (SYNSTAR).
     S,P,D,L SHELL ROTATED AXIS INTEGRALS PROGRAMMED BY
        KAZUYA ISHIMURA (INSTITUTE FOR MOLECULAR SCIENCE).
     S,P,D,F,G SHELL TO TOTAL QUARTET ANGULAR MOMENTUM SUM 5,
        ERIC PROGRAM BY GRAHAM FLETCHER (ELORET AND NASA ADVANCED
        SUPERCOMPUTING DIVISION, AMES RESEARCH CENTER).
     S,P,D,F,G,L SHELL GENERAL RYS QUADRATURE PROGRAMMED BY
        MICHEL DUPUIS (PACIFIC NORTHWEST NATIONAL LABORATORY).

          --------------------
          2 ELECTRON INTEGRALS
          --------------------

 THE -PK- OPTION IS OFF, THE INTEGRALS ARE NOT IN SUPERMATRIX FORM.
 STORING   15000 INTEGRALS/RECORD ON DISK, USING 12 BYTES/INTEGRAL.
 TWO ELECTRON INTEGRAL EVALUATION REQUIRES   92742 WORDS OF MEMORY.
 SCHWARZ INEQUALITY OVERHEAD:     20501 INTEGRALS, T=        0.00
 II,JST,KST,LST =  1  1  1  1 NREC =         1 INTLOC =    1
 II,JST,KST,LST =  2  1  1  1 NREC =         1 INTLOC =    1
 II,JST,KST,LST =  3  1  1  1 NREC =         1 INTLOC =    1
 II,JST,KST,LST =  4  1  1  1 NREC =         1 INTLOC =    1
 II,JST,KST,LST =  5  1  1  1 NREC =         1 INTLOC =    1
 II,JST,KST,LST =  6  1  1  1 NREC =         1 INTLOC =    1
 II,JST,KST,LST =  7  1  1  1 NREC =         1 INTLOC =  106
 II,JST,KST,LST =  8  1  1  1 NREC =         1 INTLOC =  443
 II,JST,KST,LST =  9  1  1  1 NREC =         1 INTLOC =  443
 II,JST,KST,LST = 10  1  1  1 NREC =         1 INTLOC = 1512
 II,JST,KST,LST = 11  1  1  1 NREC =         1 INTLOC = 9012
 II,JST,KST,LST = 12  1  1  1 NREC =         1 INTLOC = 9012
 II,JST,KST,LST = 13  1  1  1 NREC =         1 INTLOC =12507
 II,JST,KST,LST = 14  1  1  1 NREC =         1 INTLOC =12507
 II,JST,KST,LST = 15  1  1  1 NREC =         1 INTLOC =14382
 II,JST,KST,LST = 16  1  1  1 NREC =         2 INTLOC =  152
 II,JST,KST,LST = 17  1  1  1 NREC =         2 INTLOC =  152
 II,JST,KST,LST = 18  1  1  1 NREC =         2 INTLOC =  516
 II,JST,KST,LST = 19  1  1  1 NREC =         2 INTLOC = 8011
 II,JST,KST,LST = 20  1  1  1 NREC =         3 INTLOC = 3583
 II,JST,KST,LST = 21  1  1  1 NREC =         3 INTLOC = 3583
 II,JST,KST,LST = 22  1  1  1 NREC =         3 INTLOC = 5461
 II,JST,KST,LST = 23  1  1  1 NREC =         3 INTLOC =11534
 II,JST,KST,LST = 24  1  1  1 NREC =         4 INTLOC =  361
 II,JST,KST,LST = 25  1  1  1 NREC =         4 INTLOC =  361
 II,JST,KST,LST = 26  1  1  1 NREC =         4 INTLOC = 4085
 II,JST,KST,LST = 27  1  1  1 NREC =         4 INTLOC = 4085
 II,JST,KST,LST = 28  1  1  1 NREC =         7 INTLOC = 7534
 II,JST,KST,LST = 29  1  1  1 NREC =         7 INTLOC = 7534
 II,JST,KST,LST = 30  1  1  1 NREC =         7 INTLOC =10625
 II,JST,KST,LST = 31  1  1  1 NREC =        14 INTLOC = 7592
 II,JST,KST,LST = 32  1  1  1 NREC =        14 INTLOC = 7592
 II,JST,KST,LST = 33  1  1  1 NREC =        14 INTLOC = 7592
 II,JST,KST,LST = 34  1  1  1 NREC =        15 INTLOC = 1672
 II,JST,KST,LST = 35  1  1  1 NREC =        17 INTLOC = 1817
 II,JST,KST,LST = 36  1  1  1 NREC =        23 INTLOC = 6902
 II,JST,KST,LST = 37  1  1  1 NREC =        37 INTLOC =10698
 II,JST,KST,LST = 38  1  1  1 NREC =        37 INTLOC =10698
 II,JST,KST,LST = 39  1  1  1 NREC =        37 INTLOC =10698
 II,JST,KST,LST = 40  1  1  1 NREC =        40 INTLOC = 5329
 II,JST,KST,LST = 41  1  1  1 NREC =        55 INTLOC = 3504
 II,JST,KST,LST = 42  1  1  1 NREC =        55 INTLOC = 3504
 II,JST,KST,LST = 43  1  1  1 NREC =        55 INTLOC = 3504
 II,JST,KST,LST = 44  1  1  1 NREC =        67 INTLOC = 5902
 II,JST,KST,LST = 45  1  1  1 NREC =       100 INTLOC = 1252
 II,JST,KST,LST = 46  1  1  1 NREC =       100 INTLOC = 1252
 II,JST,KST,LST = 47  1  1  1 NREC =       100 INTLOC = 1252
 II,JST,KST,LST = 48  1  1  1 NREC =       100 INTLOC = 1252
 II,JST,KST,LST = 49  1  1  1 NREC =       128 INTLOC = 5368
 II,JST,KST,LST = 50  1  1  1 NREC =       128 INTLOC = 5368
 II,JST,KST,LST = 51  1  1  1 NREC =       128 INTLOC = 5368
 II,JST,KST,LST = 52  1  1  1 NREC =       128 INTLOC = 5368
 II,JST,KST,LST = 53  1  1  1 NREC =       128 INTLOC = 5368
 II,JST,KST,LST = 54  1  1  1 NREC =       148 INTLOC = 1607
 II,JST,KST,LST = 55  1  1  1 NREC =       184 INTLOC = 5288
 II,JST,KST,LST = 56  1  1  1 NREC =       184 INTLOC = 5288
 II,JST,KST,LST = 57  1  1  1 NREC =       184 INTLOC = 5288
 II,JST,KST,LST = 58  1  1  1 NREC =       184 INTLOC = 5288
 II,JST,KST,LST = 59  1  1  1 NREC =       184 INTLOC = 5288
 II,JST,KST,LST = 60  1  1  1 NREC =       184 INTLOC = 5288
 II,JST,KST,LST = 61  1  1  1 NREC =       188 INTLOC = 5884
 II,JST,KST,LST = 62  1  1  1 NREC =       188 INTLOC =11598
 II,JST,KST,LST = 63  1  1  1 NREC =       194 INTLOC =10165
 II,JST,KST,LST = 64  1  1  1 NREC =       208 INTLOC =11181
 II,JST,KST,LST = 65  1  1  1 NREC =       225 INTLOC = 5983
 II,JST,KST,LST = 66  1  1  1 NREC =       269 INTLOC = 1532
 II,JST,KST,LST = 67  1  1  1 NREC =       269 INTLOC = 1532
 II,JST,KST,LST = 68  1  1  1 NREC =       330 INTLOC = 9184
 SCHWARZ INEQUALITY TEST SKIPPED     1071016 INTEGRAL BLOCKS.
 TOTAL NUMBER OF NONZERO TWO-ELECTRON INTEGRALS =           142627626
       9519 INTEGRAL RECORDS WERE STORED ON DISK FILE  8.
  ...... END OF TWO-ELECTRON INTEGRALS .....
 CPU     0: STEP CPU TIME=     0.64 TOTAL CPU TIME=          0.8 (      0.0 MIN)
 TOTAL WALL CLOCK TIME=          0.8 SECONDS, CPU UTILIZATION IS   100.00%

          --------------------------
             R-B3LYP SCF CALCULATION
          --------------------------

     NUCLEAR ENERGY =       811.0220366449
     MAXIT =   30     NPUNCH=    2
     EXTRAP=T  DAMP=F  SHIFT=F  RSTRCT=F  DIIS=T  DEM=F  SOSCF=F
         DENSITY MATRIX CONVERGENCE THRESHOLD=  1.00E-05
     COARSE -> FINE DFT GRID SWITCH THRESHOLD=  3.00E-04 (SWITCH IN $DFT)
                   HF -> DFT SWITCH THRESHOLD=  5.00E-03 (SWOFF IN $DFT)
     MEMORY REQUIRED FOR RHF ITERS=   1031457 WORDS.

     EXCHANGE FUNCTIONAL   =B88&HFX   
     CORRELATION FUNCTIONAL=LYP88&VWN5
     DFT THRESHOLD         =.164E-08
 FOR AN EULER-MACLAURIN QUADRATURE USING  96 RADIAL POINTS:
 SMALLEST GAUSSIAN PRIMITIVE EXPONENT=        0.0260100000 OF TYPE -P-
 ON ATOM NUMBER  21 HAS RADIAL NORMALIZATION=  1.000000
  LARGEST GAUSSIAN PRIMITIVE EXPONENT=    35264.8600000000 OF TYPE -S-
 ON ATOM NUMBER  21 HAS RADIAL NORMALIZATION=  0.999993
 DFT IS SWITCHED OFF, PERFORMING PURE SCF UNTIL SWOFF THRESHOLD IS REACHED.

 ITER EX DEM     TOTAL ENERGY        E CHANGE  DENSITY CHANGE    DIIS ERROR
   1  0  0    -1187.0244520289 -1187.0244520289   0.392088627   0.884145969
          * * *   INITIATING DIIS PROCEDURE   * * *
   2  1  0    -1188.5598053887    -1.5353533598   0.157978690   0.100193705
   3  2  0    -1188.6937123042    -0.1339069155   0.088262878   0.053381354
   4  3  0    -1188.7827007503    -0.0889884461   0.018399907   0.006531125
   5  4  0    -1188.7850808346    -0.0023800844   0.005462908   0.001897883
   6  5  0    -1188.7853698678    -0.0002890332   0.001925763   0.000668087
 CONVERGED TO SWOFF, SO DFT CALCULATION IS NOW SWITCHED ON.
          * * *   INITIATING DIIS PROCEDURE   * * *
   7  6  0    -1192.1909377054    -3.4055678376   0.131110018   0.070893465
   8  7  0    -1192.2493437779    -0.0584060725   0.056009054   0.016739858
   9  8  0    -1192.2418158738     0.0075279041   0.037053863   0.023590546
  10  9  0    -1192.2608985277    -0.0190826539   0.008481293   0.003193536
  11 10  0    -1192.2612257313    -0.0003272037   0.002629888   0.001198194
  12 11  0    -1192.2612690800    -0.0000433486   0.000826422   0.000395272
  13 12  0    -1192.2612735620    -0.0000044821   0.000482240   0.000143474
  14 13  0    -1192.2612740511    -0.0000004890   0.000096219   0.000043809
  15 14  0    -1192.2612741241    -0.0000000730   0.000038473   0.000015938
  16 15  0    -1192.2612741315    -0.0000000074   0.000014258   0.000008431
  17 16  0    -1192.2612741327    -0.0000000012   0.000003113   0.000001359
  18 17  0    -1192.2612741327    -0.0000000000   0.000000840   0.000000500

          -----------------
          DENSITY CONVERGED
          -----------------
     TIME TO FORM FOCK OPERATORS=      15.8 SECONDS (       0.9 SEC/ITER)
     TIME TO SOLVE SCF EQUATIONS=       0.6 SECONDS (       0.0 SEC/ITER)

 FINAL R-B3LYP ENERGY IS    -1192.2612741327 AFTER  18 ITERATIONS
 DFT EXCHANGE + CORRELATION ENERGY =       -84.4699111190
 TOTAL ELECTRON NUMBER             =        96.0037071759

          ------------
          EIGENVECTORS
          ------------

                      1          2          3          4          5
                 -145.4789   -19.2969   -19.2700   -19.2700   -15.5442
                     A          A          A          A          A   
    1  H  1  S    0.000001   0.000047   0.000005  -0.000017  -0.000004
    2  H  1  S   -0.000055   0.000154   0.000066  -0.000034  -0.000072
    3  C  2  S    0.000003   0.000010  -0.000013   0.000016  -0.000002
    4  C  2  S    0.000012   0.000091  -0.000032   0.000040  -0.000012
    5  C  2  X   -0.000007   0.000005   0.000026  -0.000045  -0.000013
    6  C  2  Y   -0.000007   0.000017   0.000036  -0.000014  -0.000018
    7  C  2  Z    0.000001  -0.000023   0.000011  -0.000035   0.000001
    8  C  2  S   -0.000046  -0.000566   0.000351  -0.000498   0.000144
    9  C  2  X    0.000051  -0.000574  -0.000041   0.000131  -0.000013
   10  C  2  Y    0.000062  -0.000033  -0.000155   0.000235   0.000034
   11  C  2  Z   -0.000001   0.000110  -0.000145   0.000030   0.000064
   12  C  2 XX    0.000003  -0.000005  -0.000045   0.000055  -0.000000
   13  C  2 YY    0.000005  -0.000006  -0.000035   0.000028   0.000003
   14  C  2 ZZ    0.000003  -0.000007  -0.000013   0.000019  -0.000002
   15  C  2 XY   -0.000003   0.000020  -0.000011   0.000023   0.000009
   16  C  2 XZ    0.000001  -0.000008  -0.000010   0.000031  -0.000008
   17  C  2 YZ    0.000003   0.000024  -0.000002  -0.000001   0.000000
   18  H  3  S    0.000004  -0.000021  -0.000030   0.000068   0.000014
   19  H  3  S    0.000009   0.000132  -0.000000   0.000163  -0.000074
   20  C  4  S   -0.000003   0.000005  -0.000000   0.000004  -0.000003
   21  C  4  S   -0.000014   0.000025   0.000026  -0.000028  -0.000010
   22  C  4  X    0.000001  -0.000005   0.000011  -0.000057   0.000008
   23  C  4  Y    0.000000  -0.000010  -0.000003   0.000021   0.000001
   24  C  4  Z    0.000002   0.000011  -0.000004   0.000013   0.000000
   25  C  4  S    0.000110  -0.000072   0.000099   0.000131   0.000041
   26  C  4  X   -0.000024   0.000210  -0.000072   0.000072  -0.000023
   27  C  4  Y   -0.000029   0.000292  -0.000037  -0.000162   0.000034
   28  C  4  Z    0.000001   0.000121  -0.000360   0.000191   0.000010
   29  C  4 XX   -0.000006   0.000003  -0.000025   0.000048  -0.000009
   30  C  4 YY   -0.000004  -0.000007  -0.000008   0.000007  -0.000010
   31  C  4 ZZ   -0.000004   0.000014  -0.000008   0.000035  -0.000003
   32  C  4 XY    0.000001   0.000001  -0.000001   0.000007   0.000001
   33  C  4 XZ   -0.000001   0.000010   0.000040  -0.000023  -0.000002
   34  C  4 YZ   -0.000001   0.000009   0.000014  -0.000007  -0.000001
   35  H  5  S   -0.000000   0.000007  -0.000015   0.000020  -0.000000
   36  H  5  S   -0.000022  -0.000102  -0.000056   0.000175  -0.000043
   37  H  6  S    0.000000   0.000003   0.000008  -0.000023   0.000004
   38  H  6  S   -0.000021  -0.000059  -0.000043  -0.000032   0.000003
   39  C  7  S   -0.000001  -0.000014   0.000001   0.000013  -0.000008
   40  C  7  S    0.000003  -0.000053   0.000015   0.000114  -0.000034
   41  C  7  X    0.000008  -0.000002  -0.000011  -0.000028  -0.000005
   42  C  7  Y   -0.000000   0.000004   0.000031   0.000006  -0.000001
   43  C  7  Z   -0.000004  -0.000030  -0.000002   0.000005  -0.000001
   44  C  7  S    0.000017   0.000340   0.000052  -0.000314   0.000249
   45  C  7  X   -0.000039   0.000152   0.000069   0.000101  -0.000033
   46  C  7  Y   -0.000027   0.000180  -0.000828   0.000142  -0.000035
   47  C  7  Z   -0.000011   0.000171   0.000150   0.000022   0.000085
   48  C  7 XX   -0.000012  -0.000022  -0.000002  -0.000006  -0.000013
   49  C  7 YY   -0.000005  -0.000025  -0.000007  -0.000021  -0.000012
   50  C  7 ZZ   -0.000007  -0.000022   0.000004   0.000020  -0.000005
   51  C  7 XY   -0.000004   0.000007  -0.000011   0.000015   0.000001
   52  C  7 XZ    0.000004   0.000003  -0.000008   0.000030  -0.000007
   53  C  7 YZ   -0.000002   0.000016   0.000000   0.000001  -0.000001
   54  H  8  S    0.000004  -0.000003   0.000028  -0.000012   0.000002
   55  H  8  S   -0.000031   0.000061   0.000107   0.000225  -0.000020
   56  H  9  S    0.000003  -0.000015  -0.000039   0.000034  -0.000008
   57  H  9  S   -0.000005  -0.000009  -0.000186   0.000057  -0.000046
   58  C 10  S    0.000002  -0.000014  -0.000005  -0.000043   0.000013
   59  C 10  S   -0.000029  -0.000087   0.000190   0.000472   0.000040
   60  C 10  X   -0.000011  -0.000015   0.000061  -0.000145   0.000007
   61  C 10  Y   -0.000005  -0.000021  -0.000310   0.000068   0.000002
   62  C 10  Z    0.000020   0.000004   0.000025   0.000099  -0.000015
   63  C 10  S    0.000030   0.000314  -0.000699  -0.001002  -0.000336
   64  C 10  X   -0.000038   0.000125  -0.000802   0.000724  -0.000101
   65  C 10  Y    0.000005  -0.000148   0.002889  -0.000568  -0.000022
   66  C 10  Z    0.000028   0.000060  -0.000072  -0.000461  -0.000040
   67  C 10 XX    0.000014  -0.000011  -0.000008  -0.000235   0.000018
   68  C 10 YY    0.000004  -0.000016  -0.000170  -0.000251   0.000022
   69  C 10 ZZ    0.000044   0.000007  -0.000062  -0.000232   0.000013
   70  C 10 XY    0.000002   0.000016  -0.000108   0.000041  -0.000003
   71  C 10 XZ   -0.000025   0.000022  -0.000027   0.000045  -0.000001
   72  C 10 YZ   -0.000007  -0.000001   0.000183  -0.000030  -0.000001
   73  O 11  S    0.000009  -0.000027  -0.461058   0.879085   0.000012
   74  O 11  S    0.000030  -0.000058  -0.011761   0.022609   0.000035
   75  O 11  X   -0.000003  -0.000018  -0.000210   0.000429  -0.000003
   76  O 11  Y   -0.000016   0.000002   0.000381  -0.000647  -0.000003
   77  O 11  Z    0.000023  -0.000019   0.000061  -0.000205   0.000014
   78  O 11  S   -0.000191   0.000258  -0.007017   0.012142  -0.000313
   79  O 11  X   -0.000011   0.000128  -0.000443   0.000232   0.000026
   80  O 11  Y    0.000028  -0.000027   0.000305  -0.000406   0.000046
   81  O 11  Z    0.000002   0.000058   0.000225   0.000291  -0.000103
   82  O 11 XX    0.000031  -0.000026   0.003904  -0.007391   0.000025
   83  O 11 YY    0.000030  -0.000033   0.003779  -0.007440   0.000048
   84  O 11 ZZ    0.000059  -0.000018   0.003891  -0.007363   0.000068
   85  O 11 XY    0.000009  -0.000021   0.000061  -0.000029  -0.000001
   86  O 11 XZ   -0.000007   0.000031   0.000032  -0.000032  -0.000010
   87  O 11 YZ   -0.000016   0.000013   0.000004  -0.000022  -0.000043
   88  O 12  S    0.000009  -0.000031   0.879083   0.461071   0.000013
   89  O 12  S    0.000022  -0.000020   0.022528   0.011904   0.000037
   90  O 12  X   -0.000010  -0.000023  -0.000020   0.000026  -0.000002
   91  O 12  Y    0.000012   0.000003   0.000822   0.000406   0.000001
   92  O 12  Z    0.000022  -0.000025  -0.000176  -0.000136   0.000014
   93  O 12  S   -0.000164  -0.000003   0.012745   0.006120  -0.000309
   94  O 12  X    0.000005   0.000096   0.000202  -0.000130   0.000046
   95  O 12  Y   -0.000026  -0.000030   0.000742   0.000149  -0.000032
   96  O 12  Z   -0.000003   0.000165  -0.000092   0.000320  -0.000118
   97  O 12 XX    0.000034  -0.000007  -0.007438  -0.003884   0.000035
   98  O 12 YY    0.000021  -0.000011  -0.007273  -0.003935   0.000047
   99  O 12 ZZ    0.000059   0.000021  -0.007372  -0.003839   0.000066
  100  O 12 XY   -0.000005   0.000003  -0.000000   0.000054  -0.000012
  101  O 12 XZ   -0.000018   0.000035  -0.000048  -0.000010  -0.000030
  102  O 12 YZ    0.000013   0.000013  -0.000026   0.000002   0.000029
  103  C 13  S   -0.000001   0.000000  -0.000013  -0.000035   0.000008
  104  C 13  S    0.000007   0.000447  -0.000047  -0.000137   0.000020
  105  C 13  X    0.000008  -0.000260  -0.000003   0.000037  -0.000025
  106  C 13  Y    0.000004  -0.000165   0.000010   0.000020  -0.000010
  107  C 13  Z   -0.000011   0.000244   0.000031   0.000030  -0.000021
  108  C 13  S    0.000050  -0.001143   0.000398   0.000738   0.000115
  109  C 13  X   -0.000010   0.002326   0.000061  -0.000499   0.000285
  110  C 13  Y    0.000027   0.000720  -0.000216   0.000045  -0.000103
  111  C 13  Z    0.000012  -0.001194   0.000070  -0.000250   0.000058
  112  C 13 XX   -0.000015  -0.000183  -0.000012  -0.000054   0.000038
  113  C 13 YY   -0.000005  -0.000102  -0.000019  -0.000068   0.000022
  114  C 13 ZZ   -0.000005  -0.000103  -0.000027  -0.000035  -0.000001
  115  C 13 XY   -0.000007  -0.000091   0.000004   0.000012  -0.000014
  116  C 13 XZ    0.000007   0.000075  -0.000005   0.000002   0.000014
  117  C 13 YZ    0.000002   0.000008   0.000003  -0.000020   0.000011
  118  O 14  S    0.000008   0.992616   0.000021   0.000019   0.000013
  119  O 14  S    0.000014   0.025367   0.000003  -0.000053   0.000036
  120  O 14  X   -0.000013   0.000716   0.000004   0.000012  -0.000001
  121  O 14  Y   -0.000003   0.000376   0.000018   0.000000  -0.000008
  122  O 14  Z   -0.000008  -0.000479   0.000007   0.000041  -0.000016
  123  O 14  S   -0.000130   0.014883  -0.000089   0.000024  -0.000268
  124  O 14  X   -0.000019  -0.000146  -0.000093  -0.000096   0.000057
  125  O 14  Y   -0.000002   0.000163  -0.000099  -0.000049   0.000061
  126  O 14  Z   -0.000004  -0.000603  -0.000033  -0.000128   0.000069
  127  O 14 XX    0.000067  -0.008411  -0.000008  -0.000024   0.000094
  128  O 14 YY    0.000024  -0.008508   0.000020  -0.000040   0.000037
  129  O 14 ZZ    0.000031  -0.008485   0.000013  -0.000019   0.000026
  130  O 14 XY    0.000012   0.000043   0.000016   0.000002   0.000014
  131  O 14 XZ    0.000006   0.000018   0.000013   0.000033   0.000023
  132  O 14 YZ   -0.000002  -0.000020   0.000018  -0.000001   0.000002
  133  N 15  S   -0.000001   0.000004   0.000006  -0.000005   0.000007
  134  N 15  S   -0.000004   0.000086   0.000032  -0.000014   0.000031
  135  N 15  X    0.000001   0.000006   0.000001  -0.000002   0.000004
  136  N 15  Y    0.000001   0.000052   0.000007   0.000001   0.000004
  137  N 15  Z    0.000002  -0.000032   0.000010  -0.000002   0.000004
  138  N 15  S    0.000006  -0.000579  -0.000279   0.000164  -0.000319
  139  N 15  X   -0.000009   0.000337   0.000131  -0.000065   0.000140
  140  N 15  Y    0.000009  -0.000760  -0.000025   0.000082  -0.000068
  141  N 15  Z   -0.000019   0.000479  -0.000046   0.000014  -0.000009
  142  N 15 XX    0.000003  -0.000127   0.000002  -0.000001  -0.000001
  143  N 15 YY   -0.000004   0.000037   0.000012  -0.000008   0.000012
  144  N 15 ZZ   -0.000002   0.000003   0.000006  -0.000015   0.000018
  145  N 15 XY   -0.000001  -0.000024  -0.000001  -0.000016   0.000011
  146  N 15 XZ    0.000002   0.000062  -0.000001  -0.000005   0.000001
  147  N 15 YZ   -0.000001  -0.000008   0.000006   0.000005   0.000001
  148  H 16  S    0.000002   0.000112  -0.000005  -0.000003   0.000008
  149  H 16  S   -0.000021  -0.000005  -0.000007   0.000024  -0.000029
  150  C 17  S   -0.000001   0.000013   0.000003  -0.000001  -0.000001
  151  C 17  S   -0.000005   0.000055   0.000009  -0.000006  -0.000004
  152  C 17  X    0.000006  -0.000038   0.000007   0.000007   0.000011
  153  C 17  Y    0.000000  -0.000054  -0.000002  -0.000007   0.000003
  154  C 17  Z    0.000001   0.000026  -0.000005   0.000001   0.000001
  155  C 17  S    0.000031  -0.000689  -0.000052   0.000029   0.000017
  156  C 17  X   -0.000037   0.000165  -0.000049  -0.000034  -0.000069
  157  C 17  Y    0.000009  -0.000121   0.000067   0.000054  -0.000005
  158  C 17  Z   -0.000014   0.000219   0.000042  -0.000012   0.000003
  159  C 17 XX   -0.000003   0.000048  -0.000001  -0.000007  -0.000006
  160  C 17 YY   -0.000000  -0.000006   0.000012  -0.000000   0.000001
  161  C 17 ZZ   -0.000002  -0.000003   0.000007   0.000002  -0.000002
  162  C 17 XY   -0.000001   0.000009  -0.000004  -0.000003  -0.000003
  163  C 17 XZ   -0.000000   0.000005   0.000002   0.000002   0.000000
  164  C 17 YZ   -0.000001   0.000033  -0.000000  -0.000003   0.000001
  165  H 18  S   -0.000000   0.000014  -0.000028  -0.000022  -0.000003
  166  H 18  S   -0.000015   0.000223   0.000143   0.000078  -0.000023
  167  H 19  S    0.000006   0.000009   0.000007   0.000003   0.000008
  168  H 19  S    0.000005  -0.000036   0.000026   0.000014   0.000023
  169  H 20  S   -0.000004   0.000081   0.000007   0.000007  -0.000008
  170  H 20  S    0.000002  -0.000030  -0.000072  -0.000046  -0.000020
  171  CA21  S    0.996531  -0.000006  -0.000003  -0.000009   0.290125
  172  CA21  S   -0.012625   0.000015   0.000007   0.000020   1.031194
  173  CA21  X   -0.000004   0.000015   0.000000  -0.000009   0.000136
  174  CA21  Y   -0.000001   0.000003  -0.000012   0.000002   0.000028
  175  CA21  Z    0.000006   0.000006  -0.000001  -0.000006  -0.000196
  176  CA21  S    0.016816  -0.000188  -0.000062  -0.000155   0.061515
  177  CA21  X    0.000007  -0.000725  -0.000186  -0.000219   0.000126
  178  CA21  Y    0.000002  -0.000127   0.000340  -0.000191   0.000026
  179  CA21  Z   -0.000014  -0.000120   0.000206   0.000747  -0.000144
  180  CA21  S    0.001375  -0.001347  -0.000519  -0.001589  -0.000679
  181  CA21  X    0.000023  -0.001372  -0.000382  -0.000536   0.000298
  182  CA21  Y    0.000007  -0.000235   0.000596  -0.000370   0.000070
  183  CA21  Z   -0.000032  -0.000195   0.000424   0.001479  -0.000329
  184  CA21  S    0.001587  -0.000032   0.000169   0.000499   0.001591
  185  CA21  X    0.000009   0.000133  -0.000036  -0.000202  -0.000075
  186  CA21  Y    0.000003  -0.000008  -0.000004  -0.000086  -0.000007
  187  CA21  Z   -0.000009   0.000039   0.000039   0.000163   0.000082
  188  CA21 XX    0.006408  -0.000203  -0.000061  -0.000173   0.018858
  189  CA21 YY    0.006407  -0.000159  -0.000061  -0.000199   0.018880
  190  CA21 ZZ    0.006412  -0.000151  -0.000077  -0.000240   0.018863
  191  CA21 XY   -0.000000  -0.000019   0.000011  -0.000001  -0.000006
  192  CA21 XZ   -0.000001  -0.000032   0.000022   0.000012   0.000026
  193  CA21 YZ   -0.000000   0.000001  -0.000052   0.000022   0.000004
  194  CA21 XX   -0.000489  -0.000282   0.000032   0.000233   0.001639
  195  CA21 YY   -0.000480   0.000341   0.000084   0.000093   0.001538
  196  CA21 ZZ   -0.000488   0.000246  -0.000035  -0.000172   0.001693
  197  CA21 XY   -0.000002  -0.000110   0.000091   0.000048   0.000015
  198  CA21 XZ   -0.000000  -0.000130   0.000098   0.000094  -0.000081
  199  CA21 YZ   -0.000001  -0.000054  -0.000243   0.000121  -0.000022
  200  CA21 XX   -0.000788  -0.000416  -0.000114  -0.000128  -0.000574
  201  CA21 YY   -0.000802   0.000273   0.000028  -0.000184  -0.000606
  202  CA21 ZZ   -0.000771   0.000224  -0.000207  -0.000747  -0.000550
  203  CA21 XY    0.000005  -0.000190   0.000152  -0.000080   0.000025
  204  CA21 XZ   -0.000017  -0.000118   0.000288   0.000524  -0.000062
  205  CA21 YZ   -0.000006   0.000010  -0.000424   0.000324  -0.000022

                      6          7          8          9         10
                  -14.5267   -12.6763   -12.6763   -12.6761   -10.4554
                     A          A          A          A          A   
    1  H  1  S    0.000010   0.000128   0.000033  -0.000062  -0.000194
    2  H  1  S    0.000027   0.000155   0.000125  -0.000505  -0.000081
    3  C  2  S   -0.000003   0.000010   0.000008   0.000038   0.000838
    4  C  2  S    0.000042   0.000044   0.000030   0.000186  -0.000190
    5  C  2  X   -0.000018   0.000051  -0.000015  -0.000073  -0.000017
    6  C  2  Y    0.000021   0.000249  -0.000010  -0.000094   0.000072
    7  C  2  Z   -0.000013  -0.000044   0.000030  -0.000056  -0.000073
    8  C  2  S    0.000070  -0.001151  -0.000217  -0.001401   0.004881
    9  C  2  X   -0.000087   0.001436  -0.000467   0.000392   0.000623
   10  C  2  Y   -0.000035  -0.001452   0.000079   0.001505  -0.001822
   11  C  2  Z   -0.000009  -0.000118  -0.000305  -0.000128   0.002142
   12  C  2 XX   -0.000037   0.000007  -0.000019   0.000073  -0.000115
   13  C  2 YY   -0.000044   0.000012   0.000035   0.000021  -0.000229
   14  C  2 ZZ   -0.000018   0.000010   0.000022   0.000014  -0.000259
   15  C  2 XY    0.000040  -0.000104   0.000032  -0.000000   0.000004
   16  C  2 XZ   -0.000033   0.000132  -0.000064   0.000026   0.000019
   17  C  2 YZ    0.000021  -0.000026   0.000004   0.000028   0.000118
   18  H  3  S   -0.000019  -0.000173  -0.000055   0.000205  -0.000064
   19  H  3  S    0.000021   0.002949  -0.000144  -0.000952  -0.000384
   20  C  4  S    0.000008  -0.000009  -0.000004  -0.000009  -0.000099
   21  C  4  S    0.000025  -0.000045  -0.000004  -0.000079  -0.000272
   22  C  4  X    0.000007   0.000030  -0.000049  -0.000045  -0.000040
   23  C  4  Y   -0.000017  -0.000030   0.000018   0.000015   0.000124
   24  C  4  Z    0.000006   0.000026  -0.000005   0.000044  -0.000168
   25  C  4  S   -0.000195   0.000289   0.000238   0.000804   0.001040
   26  C  4  X    0.000007  -0.000511   0.000311  -0.000060   0.000146
   27  C  4  Y    0.000095   0.000542  -0.000334  -0.000598  -0.000416
   28  C  4  Z   -0.000006  -0.000201  -0.000243   0.000089   0.000726
   29  C  4 XX    0.000015  -0.000020  -0.000009   0.000015  -0.000162
   30  C  4 YY    0.000019   0.000011  -0.000002  -0.000004  -0.000093
   31  C  4 ZZ    0.000015  -0.000015  -0.000024   0.000026  -0.000064
   32  C  4 XY   -0.000006  -0.000024   0.000012   0.000027  -0.000004
   33  C  4 XZ    0.000005  -0.000003   0.000013  -0.000028  -0.000013
   34  C  4 YZ   -0.000005   0.000033   0.000016  -0.000019   0.000008
   35  H  5  S   -0.000001  -0.000041   0.000037   0.000004   0.000013
   36  H  5  S   -0.000016  -0.000458   0.000083   0.000150   0.000397
   37  H  6  S    0.000006   0.000068  -0.000067  -0.000061  -0.000068
   38  H  6  S    0.000072   0.000021  -0.000131  -0.000055  -0.000258
   39  C  7  S   -0.000004  -0.000000   0.000008   0.000027  -0.000014
   40  C  7  S   -0.000019   0.000012  -0.000004   0.000040   0.000074
   41  C  7  X    0.000009  -0.000010   0.000013  -0.000039  -0.000042
   42  C  7  Y    0.000002   0.000025  -0.000001  -0.000021   0.000022
   43  C  7  Z    0.000006  -0.000066   0.000065   0.000124  -0.000128
   44  C  7  S    0.000152  -0.000068  -0.000107  -0.001055  -0.000733
   45  C  7  X    0.000010   0.000415  -0.000521  -0.000234   0.000264
   46  C  7  Y    0.000048  -0.000326  -0.000299  -0.000270   0.000031
   47  C  7  Z    0.000023   0.000341  -0.000127  -0.000513  -0.000311
   48  C  7 XX   -0.000000  -0.000011   0.000039   0.000113  -0.000037
   49  C  7 YY   -0.000006   0.000000   0.000025   0.000024  -0.000009
   50  C  7 ZZ   -0.000001  -0.000017   0.000040   0.000115  -0.000113
   51  C  7 XY    0.000002  -0.000006   0.000011   0.000026  -0.000016
   52  C  7 XZ    0.000005   0.000024  -0.000041  -0.000071   0.000003
   53  C  7 YZ    0.000001   0.000011  -0.000035  -0.000054   0.000009
   54  H  8  S   -0.000010   0.000089  -0.000048  -0.000069   0.000042
   55  H  8  S    0.000001   0.000199  -0.000050  -0.000061   0.000003
   56  H  9  S   -0.000001  -0.000060  -0.000068   0.000069   0.000033
   57  H  9  S    0.000013  -0.000060   0.000331  -0.000182  -0.000285
   58  C 10  S   -0.000005  -0.000051   0.000021  -0.000002  -0.000128
   59  C 10  S   -0.000017  -0.000332   0.000211   0.000258  -0.000029
   60  C 10  X   -0.000006  -0.000104   0.000003   0.000243  -0.000145
   61  C 10  Y    0.000001   0.000204   0.000308  -0.000026  -0.000039
   62  C 10  Z   -0.000001   0.000123  -0.000183  -0.000449  -0.000051
   63  C 10  S    0.000123   0.002790  -0.002617  -0.005848   0.001329
   64  C 10  X   -0.000024  -0.000508  -0.000097   0.001615   0.000554
   65  C 10  Y   -0.000033   0.000668   0.001100   0.000609  -0.000437
   66  C 10  Z    0.000053   0.000419  -0.000193  -0.001644   0.000340
   67  C 10 XX   -0.000009   0.000014  -0.000030  -0.000148  -0.000080
   68  C 10 YY   -0.000002   0.000011  -0.000097  -0.000240  -0.000015
   69  C 10 ZZ   -0.000008   0.000022  -0.000059  -0.000200  -0.000048
   70  C 10 XY    0.000001  -0.000018  -0.000069   0.000021  -0.000001
   71  C 10 XZ   -0.000002  -0.000063   0.000031   0.000257  -0.000057
   72  C 10 YZ   -0.000000   0.000094   0.000166   0.000038  -0.000046
   73  O 11  S    0.000000  -0.000013   0.000088  -0.000091   0.000062
   74  O 11  S    0.000002  -0.000018   0.000355  -0.000467   0.000269
   75  O 11  X    0.000002   0.000028   0.000044  -0.000118   0.000039
   76  O 11  Y   -0.000002  -0.000191  -0.000084   0.000281  -0.000002
   77  O 11  Z   -0.000001   0.000047   0.000068  -0.000224   0.000050
   78  O 11  S   -0.000017   0.000274  -0.001575   0.002021  -0.001239
   79  O 11  X   -0.000010  -0.000332  -0.000363   0.001118  -0.000263
   80  O 11  Y    0.000020   0.001078   0.000351  -0.001991   0.000161
   81  O 11  Z    0.000007   0.000403  -0.000169   0.000226  -0.000335
   82  O 11 XX   -0.000002   0.000039   0.000290  -0.000443   0.000164
   83  O 11 YY   -0.000001  -0.000123   0.000250  -0.000041   0.000184
   84  O 11 ZZ    0.000005  -0.000037   0.000254  -0.000228   0.000182
   85  O 11 XY    0.000001   0.000115   0.000022  -0.000282   0.000037
   86  O 11 XZ    0.000000   0.000115  -0.000004  -0.000103  -0.000034
   87  O 11 YZ   -0.000001   0.000093   0.000055  -0.000162   0.000042
   88  O 12  S   -0.000002  -0.000100  -0.000044  -0.000056   0.000087
   89  O 12  S   -0.000005  -0.000399  -0.000230  -0.000319   0.000391
   90  O 12  X   -0.000005  -0.000071   0.000123   0.000046   0.000033
   91  O 12  Y    0.000000  -0.000079  -0.000248  -0.000180   0.000016
   92  O 12  Z   -0.000003  -0.000100  -0.000098  -0.000122   0.000010
   93  O 12  S   -0.000007   0.001787   0.000843   0.001798  -0.002095
   94  O 12  X    0.000017   0.000415  -0.000259  -0.000090  -0.000255
   95  O 12  Y   -0.000023   0.000379   0.001555   0.001772  -0.000487
   96  O 12  Z    0.000017   0.000429  -0.000339  -0.000074  -0.000048
   97  O 12 XX   -0.000008  -0.000326  -0.000349  -0.000379   0.000261
   98  O 12 YY   -0.000011  -0.000274   0.000093   0.000140   0.000199
   99  O 12 ZZ   -0.000007  -0.000286  -0.000106  -0.000131   0.000244
  100  O 12 XY    0.000000   0.000013  -0.000065  -0.000062  -0.000040
  101  O 12 XZ    0.000000   0.000042  -0.000207  -0.000107   0.000006
  102  O 12 YZ    0.000002   0.000051   0.000055   0.000019  -0.000023
  103  C 13  S    0.000050  -0.000112   0.000069   0.000005   0.992998
  104  C 13  S    0.000238  -0.000294   0.000214   0.000017   0.048659
  105  C 13  X    0.000286   0.000243  -0.000143   0.000044  -0.000283
  106  C 13  Y   -0.000138   0.000090  -0.000151  -0.000043  -0.000686
  107  C 13  Z    0.000050   0.000132  -0.000105  -0.000063   0.000492
  108  C 13  S   -0.000485   0.001048  -0.001485  -0.000502  -0.010608
  109  C 13  X   -0.000020  -0.005106   0.002074  -0.001043  -0.000980
  110  C 13  Y    0.000062  -0.000716   0.001153   0.001611  -0.003350
  111  C 13  Z   -0.000074   0.000600  -0.000329  -0.001237   0.003617
  112  C 13 XX    0.000064  -0.000280   0.000116  -0.000022  -0.008173
  113  C 13 YY    0.000022  -0.000227   0.000155   0.000012  -0.009000
  114  C 13 ZZ    0.000011  -0.000259   0.000129  -0.000010  -0.008976
  115  C 13 XY   -0.000009   0.000171  -0.000027  -0.000002   0.000039
  116  C 13 XZ   -0.000016  -0.000068   0.000046   0.000068  -0.000369
  117  C 13 YZ   -0.000039  -0.000019   0.000033   0.000024  -0.000350
  118  O 14  S   -0.000011   0.000053  -0.000032   0.000007  -0.000040
  119  O 14  S   -0.000028   0.000238  -0.000152  -0.000012   0.000503
  120  O 14  X   -0.000022  -0.000169   0.000108  -0.000197   0.000012
  121  O 14  Y   -0.000006   0.000028  -0.000073  -0.000004  -0.000073
  122  O 14  Z    0.000011  -0.000115   0.000015  -0.000204   0.000037
  123  O 14  S    0.000252  -0.002052   0.001297   0.000440  -0.002956
  124  O 14  X   -0.000068  -0.000310   0.000169   0.000923  -0.002082
  125  O 14  Y    0.000052  -0.000550   0.000537  -0.000128  -0.000393
  126  O 14  Z   -0.000031   0.000880  -0.000294   0.000800   0.000858
  127  O 14 XX   -0.000124   0.000034   0.000017   0.000062  -0.000184
  128  O 14 YY   -0.000022   0.000255  -0.000170   0.000083   0.000345
  129  O 14 ZZ   -0.000031   0.000206  -0.000125   0.000039   0.000234
  130  O 14 XY    0.000008  -0.000076   0.000007  -0.000025  -0.000243
  131  O 14 XZ    0.000022  -0.000056   0.000027  -0.000135   0.000401
  132  O 14 YZ   -0.000013   0.000068  -0.000014   0.000001   0.000200
  133  N 15  S    0.992610  -0.000050  -0.000020  -0.000028  -0.000204
  134  N 15  S    0.034870  -0.000218  -0.000063  -0.000137  -0.000052
  135  N 15  X   -0.000026  -0.000052   0.000050   0.000000   0.000254
  136  N 15  Y    0.000080  -0.000080   0.000084   0.000001  -0.000199
  137  N 15  Z   -0.000096   0.000046  -0.000036  -0.000022   0.000110
  138  N 15  S    0.004388   0.002809   0.000043   0.001409   0.001013
  139  N 15  X    0.000073  -0.000879  -0.000174  -0.000774   0.000892
  140  N 15  Y   -0.000041   0.001627  -0.001069   0.000124   0.001214
  141  N 15  Z    0.000038  -0.000735   0.000508   0.000209  -0.001401
  142  N 15 XX   -0.008414   0.000016  -0.000041   0.000014  -0.000598
  143  N 15 YY   -0.008485  -0.000079  -0.000061  -0.000073  -0.000145
  144  N 15 ZZ   -0.008449  -0.000121  -0.000049  -0.000057  -0.000037
  145  N 15 XY    0.000035  -0.000106   0.000044  -0.000013   0.000235
  146  N 15 XZ   -0.000034  -0.000010   0.000022  -0.000015   0.000023
  147  N 15 YZ    0.000038   0.000022  -0.000031   0.000005   0.000093
  148  H 16  S    0.000311  -0.000174   0.000100   0.000024  -0.000212
  149  H 16  S   -0.000571  -0.000350   0.000369   0.000119  -0.000688
  150  C 17  S    0.000004  -0.000006   0.000015  -0.000024  -0.000032
  151  C 17  S    0.000064  -0.000049   0.000082  -0.000094  -0.000168
  152  C 17  X   -0.000064  -0.000006   0.000021   0.000053  -0.000003
  153  C 17  Y    0.000253   0.000069  -0.000077  -0.000018   0.000113
  154  C 17  Z   -0.000176  -0.000033   0.000048   0.000027  -0.000096
  155  C 17  S   -0.000456   0.001018  -0.001312   0.000379   0.001242
  156  C 17  X   -0.000002  -0.000114   0.000200  -0.000216  -0.000591
  157  C 17  Y   -0.000231   0.000192  -0.000104  -0.000018   0.000267
  158  C 17  Z    0.000120  -0.000278   0.000185  -0.000110   0.000018
  159  C 17 XX   -0.000005  -0.000021   0.000036  -0.000035  -0.000004
  160  C 17 YY    0.000150   0.000021  -0.000005  -0.000039   0.000091
  161  C 17 ZZ    0.000070   0.000019  -0.000010  -0.000036   0.000036
  162  C 17 XY   -0.000061  -0.000001   0.000025   0.000001  -0.000122
  163  C 17 XZ    0.000042   0.000022  -0.000032  -0.000008   0.000045
  164  C 17 YZ   -0.000145  -0.000025   0.000018  -0.000009  -0.000060
  165  H 18  S   -0.000002  -0.000058   0.000002  -0.000012  -0.000012
  166  H 18  S   -0.000069  -0.000149   0.000510  -0.000200  -0.000315
  167  H 19  S    0.000000  -0.000018   0.000025   0.000014   0.000021
  168  H 19  S    0.000027  -0.000061   0.000114   0.000058   0.000059
  169  H 20  S   -0.000006   0.000048  -0.000049   0.000009  -0.000090
  170  H 20  S   -0.000019  -0.000305   0.000548  -0.000140  -0.000462
  171  CA21  S   -0.000000  -0.000042   0.000040   0.000047  -0.000006
  172  CA21  S   -0.000000  -0.000003   0.000041   0.000090  -0.000020
  173  CA21  X    0.000001   0.706591  -0.660854   0.233431   0.000042
  174  CA21  Y   -0.000000   0.697318   0.696326  -0.139739   0.000012
  175  CA21  Z    0.000001  -0.070411   0.262708   0.957356  -0.000014
  176  CA21  S   -0.000004   0.000605  -0.000354  -0.000338  -0.000361
  177  CA21  X   -0.000022   0.008258  -0.007915   0.003256  -0.000129
  178  CA21  Y   -0.000007   0.008591   0.008787  -0.001715   0.000020
  179  CA21  Z    0.000011  -0.000306   0.002926   0.011615  -0.000356
  180  CA21  S   -0.000004  -0.006193   0.004242   0.003865   0.000334
  181  CA21  X   -0.000040  -0.005598   0.004524  -0.000220   0.000061
  182  CA21  Y   -0.000017  -0.004130  -0.003234   0.000930   0.000132
  183  CA21  Z    0.000032   0.002088  -0.002435  -0.006205  -0.000862
  184  CA21  S   -0.000053   0.001197  -0.001123   0.000053   0.000600
  185  CA21  X   -0.000065   0.001502  -0.001862   0.000851   0.000785
  186  CA21  Y   -0.000017   0.001276   0.001750  -0.000127   0.000220
  187  CA21  Z    0.000026  -0.000037   0.000599   0.001865  -0.000026
  188  CA21 XX   -0.000008   0.000087  -0.000012   0.000013  -0.000224
  189  CA21 YY    0.000000  -0.000055   0.000080   0.000022  -0.000213
  190  CA21 ZZ    0.000001   0.000069   0.000001  -0.000073  -0.000222
  191  CA21 XY    0.000001   0.000026   0.000005   0.000004  -0.000009
  192  CA21 XZ    0.000000  -0.000081   0.000067   0.000067   0.000057
  193  CA21 YZ   -0.000000  -0.000045   0.000009   0.000018   0.000019
  194  CA21 XX   -0.000002   0.001436  -0.000965  -0.000801  -0.000387
  195  CA21 YY   -0.000005   0.001816  -0.001173  -0.001288  -0.000051
  196  CA21 ZZ   -0.000018   0.001192  -0.000896  -0.001052   0.000049
  197  CA21 XY   -0.000009   0.000057  -0.000002   0.000060  -0.000059
  198  CA21 XZ   -0.000006   0.000410  -0.000204  -0.000083  -0.000336
  199  CA21 YZ   -0.000003   0.000030  -0.000243   0.000108  -0.000121
  200  CA21 XX   -0.000064  -0.000950   0.000332  -0.000641   0.000532
  201  CA21 YY    0.000021   0.000163  -0.000392  -0.000356  -0.000248
  202  CA21 ZZ   -0.000003  -0.000164   0.000405   0.001057  -0.000016
  203  CA21 XY   -0.000027  -0.001159   0.000059   0.000198   0.000350
  204  CA21 XZ    0.000046   0.000909  -0.000750  -0.001140  -0.000461
  205  CA21 YZ    0.000012   0.000789   0.000278  -0.000517  -0.000138

                     11         12         13         14         15
                  -10.4419   -10.3522   -10.3348   -10.3281   -10.3178
                     A          A          A          A          A   
    1  H  1  S   -0.000028  -0.000054   0.000105  -0.000080  -0.000038
    2  H  1  S    0.000238   0.000056   0.002672   0.000061   0.000118
    3  C  2  S   -0.000124  -0.000082   0.993007  -0.013346   0.000128
    4  C  2  S   -0.000291  -0.000226   0.050776  -0.000962   0.000164
    5  C  2  X    0.000158   0.000051   0.000060  -0.000019  -0.000034
    6  C  2  Y    0.000109  -0.000060  -0.000333   0.000109   0.000077
    7  C  2  Z    0.000049   0.000037   0.000127   0.000044   0.000083
    8  C  2  S    0.001670   0.002605  -0.022756   0.004833  -0.001918
    9  C  2  X   -0.000359  -0.000013   0.000417  -0.000653   0.000535
   10  C  2  Y   -0.000313  -0.000968   0.002268  -0.000619   0.000633
   11  C  2  Z   -0.000569   0.000805   0.000034  -0.002459   0.000143
   12  C  2 XX   -0.000143  -0.000050  -0.008745  -0.000038   0.000006
   13  C  2 YY   -0.000172   0.000002  -0.008881  -0.000051  -0.000011
   14  C  2 ZZ   -0.000113  -0.000025  -0.009003  -0.000347  -0.000025
   15  C  2 XY   -0.000062  -0.000022   0.000026   0.000019   0.000048
   16  C  2 XZ    0.000023   0.000009   0.000031  -0.000013  -0.000017
   17  C  2 YZ    0.000037  -0.000045   0.000004  -0.000029  -0.000004
   18  H  3  S   -0.000049  -0.000108   0.000165  -0.000237   0.000153
   19  H  3  S   -0.000882  -0.000064   0.003593  -0.000217   0.000063
   20  C  4  S   -0.000032  -0.000007   0.013052   0.992955  -0.008762
   21  C  4  S   -0.000062   0.000004   0.000164   0.050092  -0.000876
   22  C  4  X    0.000143  -0.000001  -0.000023  -0.000078   0.000024
   23  C  4  Y    0.000041   0.000000  -0.000022  -0.000122   0.000049
   24  C  4  Z   -0.000019  -0.000038  -0.000019   0.000218   0.000018
   25  C  4  S   -0.000778  -0.000188   0.006363  -0.019985   0.006341
   26  C  4  X   -0.000387   0.000084  -0.000374   0.000940  -0.001787
   27  C  4  Y    0.000112   0.000128  -0.000333   0.000847  -0.002012
   28  C  4  Z   -0.000650   0.000053   0.002602  -0.001007  -0.000313
   29  C  4 XX   -0.000017  -0.000017  -0.000255  -0.008802  -0.000147
   30  C  4 YY   -0.000051   0.000008  -0.000310  -0.008876  -0.000239
   31  C  4 ZZ   -0.000065  -0.000014  -0.000502  -0.008941  -0.000120
   32  C  4 XY    0.000050  -0.000015   0.000041  -0.000105  -0.000102
   33  C  4 XZ   -0.000012   0.000007   0.000006   0.000012  -0.000073
   34  C  4 YZ    0.000022   0.000002  -0.000116  -0.000031  -0.000138
   35  H  5  S    0.000026  -0.000013  -0.000189   0.000110  -0.000262
   36  H  5  S   -0.000357   0.000123   0.000026   0.002738  -0.000011
   37  H  6  S    0.000049   0.000009  -0.000251   0.000057  -0.000183
   38  H  6  S    0.000334   0.000012  -0.000088   0.002776  -0.000043
   39  C  7  S    0.000860  -0.000012   0.000041   0.008458   0.993027
   40  C  7  S   -0.000284  -0.000037   0.000202   0.000033   0.050717
   41  C  7  X    0.000134  -0.000006  -0.000014  -0.000012  -0.000190
   42  C  7  Y    0.000059   0.000008  -0.000061  -0.000046   0.000064
[...]
                   Z  0.00004119  0.00007726  0.00000327 -0.00002078 -0.00003788
 12   O            X -0.00000854 -0.00009210  0.00004166 -0.00011315  0.00000289
                   Y  0.00003709 -0.00003114 -0.00029362  0.00068176  0.00001428
                   Z -0.00002773 -0.00012899  0.00007827 -0.00007497 -0.00000978
 13   C            X -0.00216442  0.00046245 -0.00016555 -0.00006581  0.00018037
                   Y  0.00044403 -0.00061345  0.00015345 -0.00023265 -0.00005785
                   Z  0.00013878  0.00043848 -0.00036079 -0.00014745  0.00007592
 14   O            X  0.00051378 -0.00004326  0.00003987  0.00002241  0.00009551
                   Y  0.00022438  0.00005634 -0.00002398  0.00003286 -0.00009403
                   Z -0.00027274  0.00002845 -0.00000623 -0.00002475  0.00013748
 15   N            X  0.00132823 -0.00011182  0.00003147 -0.00003356  0.00039156
                   Y -0.00058733  0.00012971  0.00008676  0.00012003  0.00008166
                   Z  0.00068083 -0.00005540  0.00000887  0.00007675  0.00073421
 16   H            X -0.00136349 -0.00105392 -0.00084312 -0.00016577 -0.00189879
                   Y -0.00271665  0.00034457 -0.00056882 -0.00060449 -0.00282257
                   Z  0.00099455 -0.00029772 -0.00071934 -0.00066046 -0.00126891
 17   C            X  0.00159130 -0.00012488 -0.00001787  0.00007966 -0.03070286
                   Y -0.04874978  0.00177556  0.00002442  0.00009698 -0.04481200
                   Z  0.00906740 -0.00031109  0.00005234  0.00010428 -0.06897444
 18   H            X  0.19241028 -0.00697919 -0.00008217 -0.00038821  0.15021792
                   Y  0.63799640 -0.02305782 -0.00007488 -0.00095452  0.50130253
                   Z  0.34858468 -0.01257742 -0.00011978 -0.00072877  0.26891304
 19   H            X -0.42478906  0.01537867  0.00010330 -0.00090917  0.48504099
                   Y -0.01485486  0.00066878 -0.00000421  0.00000590  0.00271699
                   Z -0.06922735  0.00243113  0.00000210 -0.00012022  0.06276820
 20   H            X  0.21179739 -0.00755004  0.00005273  0.00024937 -0.27616199
                   Y -0.03847471  0.00131066 -0.00009361  0.00000528  0.03366744
                   Z -0.39531924  0.01411204 -0.00006931 -0.00039350  0.48053221
 21   CA           X -0.00002268 -0.00003416 -0.00001774  0.00000024  0.00001206
                   Y -0.00001436  0.00001260  0.00003547  0.00000492 -0.00001666
                   Z -0.00001504 -0.00000242  0.00000304  0.00001406 -0.00001689

 TRANS. SAYVETZ    X -0.00000244 -0.00000967  0.00001101  0.00001727  0.00001120
                   Y  0.00003304 -0.00000737  0.00001146  0.00007429  0.00000953
                   Z  0.00002531 -0.00002908  0.00000385  0.00001659 -0.00000978
               TOTAL  0.00004169  0.00003152  0.00001635  0.00007805  0.00001766

   ROT. SAYVETZ    X  0.00029864 -0.00010511 -0.00162885 -0.00356411  0.00189726
                   Y -0.00211095 -0.00235693 -0.00065368 -0.00213398  0.00192315
                   Z -0.00165038 -0.00366120 -0.00259564 -0.00279053  0.00040325
               TOTAL  0.00269611  0.00435552  0.00313334  0.00500437  0.00273143

                           61          62          63
       FREQUENCY:      3158.34     3185.67     3603.66  
        SYMMETRY:         A           A           A   
    REDUCED MASS:      1.09510     1.10696     1.07844
    IR INTENSITY:      0.16515     0.06616     1.40034

  1   H            X  0.16918808  0.00092579  0.00177980
                   Y  0.16876873  0.00108771  0.00125952
                   Z  0.05174325  0.00001360 -0.00023499
  2   C            X -0.07977180 -0.00028016 -0.00014964
                   Y  0.01849206  0.00011494 -0.00003807
                   Z  0.01139460  0.00009763  0.00003579
  3   H            X  0.78884299  0.00369271  0.00045240
                   Y -0.37524879 -0.00176331  0.00009214
                   Z -0.19216784 -0.00078755  0.00039678
  4   C            X -0.01446635 -0.00006691  0.00019336
                   Y  0.00995002  0.00003895 -0.00002267
                   Z -0.00116974 -0.00000702 -0.00023479
  5   H            X  0.03799134  0.00012013 -0.00003598
                   Y -0.10246169 -0.00046531 -0.00049379
                   Z  0.05475358  0.00025976  0.00061850
  6   H            X  0.13259915  0.00065829 -0.00143426
                   Y -0.01976298 -0.00012009  0.00041393
                   Z -0.04152130 -0.00020208  0.00076226
  7   C            X -0.00389441  0.00000229 -0.00004252
                   Y  0.00516808 -0.00000407  0.00000340
                   Z -0.00174475  0.00001998  0.00003417
  8   H            X  0.01064892 -0.00007418  0.00009545
                   Y -0.00782219  0.00002724 -0.00000180
                   Z  0.03024544 -0.00018058  0.00007402
  9   H            X  0.03672491 -0.00002507  0.00015613
                   Y -0.05346354 -0.00001414 -0.00019536
                   Z -0.00723084 -0.00002308 -0.00018120
 10   C            X -0.00028767 -0.00001189  0.00000371
                   Y  0.00066233 -0.00006229  0.00003643
                   Z  0.00007757 -0.00005420 -0.00010322
 11   O            X -0.00032316  0.00013036  0.00004685
                   Y -0.00038247 -0.00006506 -0.00003054
                   Z -0.00049329  0.00005909  0.00007003
 12   O            X  0.00006913 -0.00000771  0.00000062
                   Y -0.00019082 -0.00000177 -0.00001747
                   Z  0.00006543 -0.00002799  0.00005603
 13   C            X -0.00183972 -0.00060185  0.00047690
                   Y -0.00060408 -0.00047697 -0.00131305
                   Z  0.00101344  0.00025090  0.00099727
 14   O            X  0.00065595  0.00010643  0.00129110
                   Y -0.00000917  0.00020989  0.00035403
                   Z -0.00039762 -0.00020169 -0.00056638
 15   N            X  0.00039595  0.00165641 -0.05243982
                   Y -0.00006240 -0.00024133 -0.02936646
                   Z -0.00002502 -0.00040821  0.03768118
 16   H            X  0.00155874 -0.01273495  0.70323272
                   Y -0.00178417 -0.00026606  0.40380487
                   Z  0.00127954  0.00789964 -0.51419064
 17   C            X  0.00302793 -0.08265375 -0.00106936
                   Y  0.00347133  0.00169351  0.00078736
                   Z  0.00564978  0.03617342 -0.00031054
 18   H            X -0.01196919 -0.01149130  0.00000043
                   Y -0.03921970  0.01633073  0.00400900
                   Z -0.02154524  0.01597602  0.00117736
 19   H            X -0.04445831  0.69088073  0.00978259
                   Y -0.00031444  0.01937456 -0.00097738
                   Z -0.00600609  0.11065638  0.00140446
 20   H            X  0.02175685  0.29833192  0.00369902
                   Y -0.00239211 -0.05058340  0.00152257
                   Z -0.03849735 -0.55931190 -0.00981637
 21   CA           X  0.00007446 -0.00003505 -0.00008451
                   Y  0.00003838  0.00004875  0.00000530
                   Z  0.00002897 -0.00000713 -0.00003891

 TRANS. SAYVETZ    X -0.00000895 -0.00001271  0.00000832
                   Y -0.00007423 -0.00001425 -0.00003574
                   Z -0.00001409  0.00000779  0.00001986
               TOTAL  0.00007608  0.00002062  0.00004172

   ROT. SAYVETZ    X  0.00264994 -0.00285975  0.00022051
                   Y  0.00533100 -0.01061100 -0.00425601
                   Z  0.00610205 -0.00851750 -0.00269110
               TOTAL  0.00852506  0.01390393  0.00504026

 REFERENCE ON SAYVETZ CONDITIONS - A. SAYVETZ, J.CHEM.PHYS., 7, 383-389(1939).

 NOTE - THE MODES J,K ARE ORTHONORMALIZED ACCORDING TO
 SUM ON I   M(I) * (X(I,J)*X(I,K) + Y(I,J)*Y(I,K) + Z(I,J)*Z(I,K)) = DELTA(J,K)

  MODE FREQ(CM**-1)  SYMMETRY  RED. MASS  IR INTENS.
     1      46.016    A        4.205676    0.004889
     2      22.854    A        5.472540    0.039782
     3       9.485    A        5.721199    0.019844
     4       0.168    A        8.719498    0.000005
     5       0.054    A        8.765948    0.000001
     6       0.218    A        8.763771    0.000000
     7      55.164    A        7.308698    0.112050
     8      86.706    A        2.354289    0.052518
     9     135.603    A        1.559302    0.036560
    10     143.235    A        2.431179    0.032426
    11     147.346    A        3.017858    0.213871
    12     185.609    A        2.671413    0.014324
    13     207.185    A        9.588301    0.423874
    14     250.241    A        5.651032    0.163553
    15     279.970    A        4.461604    0.761736
    16     348.456    A        5.001793    0.858400
    17     380.167    A        5.959459    1.259472
    18     396.661    A        6.452985    0.717276
    19     429.403    A        5.289686    0.833947
    20     450.888    A        3.276062    0.482086
    21     505.822    A        5.550517    0.681431
    22     585.310    A        2.968873    0.388998
    23     629.727    A        1.314661    1.435625
    24     682.425    A        4.835797    0.884945
    25     699.089    A        1.939553    0.095100
    26     767.789    A        3.384867    0.251432
    27     818.406    A        2.548010    0.496942
    28     855.092    A        3.367092    0.115241
    29     912.270    A        2.521047    0.058474
    30     944.849    A        3.701039    0.099800
    31    1023.287    A        2.386863    0.114440
    32    1024.813    A        3.018920    0.318212
    33    1079.377    A        3.645868    0.140026
    34    1095.254    A        2.615575    0.211051
    35    1161.641    A        1.283775    0.151038
    36    1193.539    A        1.593672    0.364200
    37    1218.824    A        1.198975    0.326254
    38    1223.235    A        1.232051    0.106347
    39    1294.125    A        1.192663    0.235344
    40    1334.287    A        1.791342    0.874102
    41    1340.217    A        1.400955    0.207023
    42    1379.050    A        1.303495    0.733149
    43    1399.491    A        1.430099    0.842273
    44    1471.540    A        1.248683    0.506726
    45    1482.218    A        4.158023    3.051904
    46    1497.362    A        1.100045    0.416325
    47    1512.352    A        1.048581    0.355783
    48    1515.671    A        1.177203    1.719943
    49    1525.987    A        1.146269    0.316580
    50    1530.040    A        1.101298    0.526395
    51    1549.341    A        3.917211    4.422314
    52    1608.434    A        2.308382    3.053579
    53    1665.286    A        5.473630   11.748276
    54    3068.882    A        1.067475    0.160385
    55    3075.687    A        1.065384    0.263420
    56    3079.122    A        1.036483    0.259481
    57    3082.362    A        1.065500    0.108892
    58    3116.623    A        1.102049    0.041915
    59    3139.117    A        1.100966    0.146216
    60    3157.626    A        1.101788    0.153419
    61    3158.341    A        1.095098    0.165147
    62    3185.668    A        1.106963    0.066155
    63    3603.664    A        1.078443    1.400340

     -------------------------------
     THERMOCHEMISTRY AT T=  298.15 K
     -------------------------------

 USING IDEAL GAS, RIGID ROTOR, HARMONIC NORMAL MODE APPROXIMATIONS.
 P=  1.01325E+05 PASCAL.
 ALL FREQUENCIES ARE SCALED BY   1.00000
 THE MOMENTS OF INERTIA ARE (IN AMU*BOHR**2)
           1511.32474          2208.76498          2958.79516
 THE ROTATIONAL SYMMETRY NUMBER IS  1.0
 THE ROTATIONAL CONSTANTS ARE (IN GHZ)
      1.19305     0.81633     0.60940
      7 -     63 VIBRATIONAL MODES ARE USED IN THERMOCHEMISTRY.
 THE HARMONIC ZERO POINT ENERGY IS (SCALED BY   1.000)
        0.167878 HARTREE/MOLECULE    36844.937399 CM**-1/MOLECULE 
      105.345068 KCAL/MOL              440.763765 KJ/MOL

               Q               LN Q
 ELEC.     1.00000E+00       0.000000
 TRANS.    9.81255E+07      18.401758
 ROT.      1.12500E+06      13.933294
 VIB.      1.75891E+03       7.472451
 TOT.      1.94168E+17      39.807502

              E         H         G         CV        CP        S
           KJ/MOL    KJ/MOL    KJ/MOL   J/MOL-K   J/MOL-K   J/MOL-K
 ELEC.      0.000     0.000    -0.000     0.000     0.000     0.000
 TRANS.     3.718     6.197   -45.617    12.472    20.786   173.786
 ROT.       3.718     3.718   -34.540    12.472    12.472   128.319
 VIB.     463.174   463.174   422.240   147.929   147.929   137.293
 TOTAL    470.611   473.090   342.083   172.872   181.186   439.397
 VIB. THERMAL CORRECTION E(T)-E(0) = H(T)-H(0) =     22410.108 J/MOL

              E         H         G         CV        CP        S
         KCAL/MOL  KCAL/MOL  KCAL/MOL CAL/MOL-K CAL/MOL-K CAL/MOL-K
 ELEC.      0.000     0.000    -0.000     0.000     0.000     0.000
 TRANS.     0.889     1.481   -10.903     2.981     4.968    41.536
 ROT.       0.889     0.889    -8.255     2.981     2.981    30.669
 VIB.     110.701   110.701   100.918    35.356    35.356    32.814
 TOTAL    112.479   113.071    81.760    41.317    43.305   105.018
 VIB. THERMAL CORRECTION E(T)-E(0) = H(T)-H(0) =      5356.144 CAL/MOL
 ......END OF NORMAL COORDINATE ANALYSIS......
 CPU     0: STEP CPU TIME=     0.01 TOTAL CPU TIME=       1798.0 (     30.0 MIN)
 TOTAL WALL CLOCK TIME=       1798.0 SECONDS, CPU UTILIZATION IS   100.00%
                  1358784  WORDS OF DYNAMIC MEMORY USED
 EXECUTION OF GAMESS TERMINATED NORMALLY 15:15:16 01-AUG-2021    
 DDI: 263640 bytes (0.3 MB / 0 MWords) used by master data server.

 ----------------------------------------
 CPU timing information for all processes
 ========================================
 0: 1707.765625 + 59.140625 = 1766.906250
 1: 1707.343750 + 57.437500 = 1764.781250
 2: 1708.625000 + 55.859375 = 1764.484375
 3: 1707.046875 + 56.921875 = 1763.968750
 4: 1709.359375 + 53.765625 = 1763.125000
 5: 1708.343750 + 57.343750 = 1765.687500
 6: 1708.468750 + 56.093750 = 1764.562500
 7: 1706.281250 + 58.156250 = 1764.437500
 8: 1712.109375 + 55.015625 = 1767.125000
 9: 1701.343750 + 59.234375 = 1760.578125
 10: 1708.328125 + 56.453125 = 1764.781250
 11: 1706.828125 + 59.421875 = 1766.250000
 12: 1708.000000 + 55.125000 = 1763.125000
 13: 1706.656250 + 57.000000 = 1763.656250
 14: 1707.156250 + 56.843750 = 1763.1000000
 15: 1707.640625 + 58.125000 = 1765.765625
 16: 1708.921875 + 55.593750 = 1764.515625
 17: 1702.765625 + 56.921875 = 1759.687500
 18: 1708.968750 + 55.640625 = 1764.609375
 19: 1708.218750 + 57.343750 = 1765.562500
 20: 1711.515625 + 56.359375 = 1767.875000
 21: 1708.312500 + 56.406250 = 1764.718750
 22: 1710.906250 + 56.828125 = 1767.734375
 23: 1710.015625 + 56.156250 = 1766.171875
 24: 1710.156250 + 56.531250 = 1766.687500
 25: 1708.546875 + 56.906250 = 1765.453125
 26: 1664.015625 + 11.203125 = 1675.218750
 27: 0.156250 + 0.031250 = 0.187500
 28: 0.234375 + 0.015625 = 0.250000
 29: 0.156250 + 0.015625 = 0.171875
 30: 0.234375 + 0.015625 = 0.250000
 31: 0.156250 + 0.031250 = 0.187500
 32: 0.156250 + 0.031250 = 0.187500
 33: 0.156250 + 0.015625 = 0.171875
 34: 0.171875 + 0.015625 = 0.187500
 35: 0.140625 + 0.046875 = 0.187500
 36: 0.187500 + 0.015625 = 0.203125
 37: 0.140625 + 0.000000 = 0.140625
 38: 0.234375 + 0.046875 = 0.281250
 39: 0.234375 + 0.015625 = 0.250000
 40: 0.312500 + 0.015625 = 0.328125
 41: 0.156250 + 0.031250 = 0.187500
 42: 0.250000 + 0.046875 = 0.296875
 43: 0.156250 + 0.015625 = 0.171875
 44: 0.265625 + 0.000000 = 0.265625
 45: 0.171875 + 0.015625 = 0.187500
 46: 0.218750 + 0.015625 = 0.234375
 47: 0.234375 + 0.015625 = 0.250000
 48: 0.234375 + 0.031250 = 0.265625
 49: 0.281250 + 0.046875 = 0.328125
 50: 0.218750 + 0.015625 = 0.234375
 51: 0.281250 + 0.015625 = 0.296875
 ----------------------------------------
           Disk usage (in bytes)       
 ========================================
01/08/2021  14:44             1,465 MMP1_ca_1101_small_fc.F05
01/08/2021  15:15        57,065,072 MMP1_ca_1101_small_fc.F08
01/08/2021  15:15        84,427,504 MMP1_ca_1101_small_fc.F08.001
01/08/2021  15:15        93,068,272 MMP1_ca_1101_small_fc.F08.002
01/08/2021  15:15        56,345,008 MMP1_ca_1101_small_fc.F08.003
01/08/2021  15:15        57,605,120 MMP1_ca_1101_small_fc.F08.004
01/08/2021  15:15        55,624,944 MMP1_ca_1101_small_fc.F08.005
01/08/2021  15:15        66,605,920 MMP1_ca_1101_small_fc.F08.006
01/08/2021  15:15        68,766,112 MMP1_ca_1101_small_fc.F08.007
01/08/2021  15:15        66,245,888 MMP1_ca_1101_small_fc.F08.008
01/08/2021  15:15        79,567,072 MMP1_ca_1101_small_fc.F08.009
01/08/2021  15:15        76,146,768 MMP1_ca_1101_small_fc.F08.010
01/08/2021  15:15        67,686,016 MMP1_ca_1101_small_fc.F08.011
01/08/2021  15:15        68,766,112 MMP1_ca_1101_small_fc.F08.012
01/08/2021  15:15        84,067,472 MMP1_ca_1101_small_fc.F08.013
01/08/2021  15:15        59,405,280 MMP1_ca_1101_small_fc.F08.014
01/08/2021  15:15        48,784,336 MMP1_ca_1101_small_fc.F08.015
01/08/2021  15:15        54,184,816 MMP1_ca_1101_small_fc.F08.016
01/08/2021  15:15        63,185,616 MMP1_ca_1101_small_fc.F08.017
01/08/2021  15:15        61,565,472 MMP1_ca_1101_small_fc.F08.018
01/08/2021  15:15        62,825,584 MMP1_ca_1101_small_fc.F08.019
01/08/2021  15:15        59,765,312 MMP1_ca_1101_small_fc.F08.020
01/08/2021  15:15        73,626,544 MMP1_ca_1101_small_fc.F08.021
01/08/2021  15:15        83,167,392 MMP1_ca_1101_small_fc.F08.022
01/08/2021  15:15        61,205,440 MMP1_ca_1101_small_fc.F08.023
01/08/2021  15:15        56,345,008 MMP1_ca_1101_small_fc.F08.024
01/08/2021  15:15        48,244,288 MMP1_ca_1101_small_fc.F08.025
01/08/2021  15:15         6,445,840 MMP1_ca_1101_small_fc.F10
01/08/2021  15:15         5,461,064 MMP1_ca_1101_small_fc.F22
01/08/2021  15:15         5,461,064 MMP1_ca_1101_small_fc.F22.001
01/08/2021  15:15         5,461,064 MMP1_ca_1101_small_fc.F22.002
01/08/2021  15:15         5,461,064 MMP1_ca_1101_small_fc.F22.003
01/08/2021  15:15         5,461,064 MMP1_ca_1101_small_fc.F22.004
01/08/2021  15:15         5,461,064 MMP1_ca_1101_small_fc.F22.005
01/08/2021  15:15         5,461,064 MMP1_ca_1101_small_fc.F22.006
01/08/2021  15:15         5,461,064 MMP1_ca_1101_small_fc.F22.007
01/08/2021  15:15         5,461,064 MMP1_ca_1101_small_fc.F22.008
01/08/2021  15:15         5,461,064 MMP1_ca_1101_small_fc.F22.009
01/08/2021  15:15         5,461,064 MMP1_ca_1101_small_fc.F22.010
01/08/2021  15:15         5,461,064 MMP1_ca_1101_small_fc.F22.011
01/08/2021  15:15         5,461,064 MMP1_ca_1101_small_fc.F22.012
01/08/2021  15:15         5,461,064 MMP1_ca_1101_small_fc.F22.013
01/08/2021  15:15         5,461,064 MMP1_ca_1101_small_fc.F22.014
01/08/2021  15:15         5,461,064 MMP1_ca_1101_small_fc.F22.015
01/08/2021  15:15         5,461,064 MMP1_ca_1101_small_fc.F22.016
01/08/2021  15:15         5,461,064 MMP1_ca_1101_small_fc.F22.017
01/08/2021  15:15         5,461,064 MMP1_ca_1101_small_fc.F22.018
01/08/2021  15:15         5,461,064 MMP1_ca_1101_small_fc.F22.019
01/08/2021  15:15         5,461,064 MMP1_ca_1101_small_fc.F22.020
01/08/2021  15:15         5,461,064 MMP1_ca_1101_small_fc.F22.021
01/08/2021  15:15         5,461,064 MMP1_ca_1101_small_fc.F22.022
01/08/2021  15:15         5,461,064 MMP1_ca_1101_small_fc.F22.023
01/08/2021  15:15         5,461,064 MMP1_ca_1101_small_fc.F22.024
01/08/2021  15:15         5,461,064 MMP1_ca_1101_small_fc.F22.025
01/08/2021  14:45            24,721 MMP1_ca_1101_small_fc.GMS.ENV
01/08/2021  14:45               151 MMP1_ca_1101_small_fc.processes.mpd
 ----------------------------------------
            Local date and time          
 ========================================
01/08/2021 - 15:15:19.12                          
